 Entering Gaussian System, Link 0=g16
 Initial command:
 /opt/g16/l1.exe "/home/jh-li/scratch/g16/Gau-71563.inp" -scrdir="/home/jh-li/scratch/g16/"
 Entering Link 1 = /opt/g16/l1.exe PID=     71567.
  
 Copyright (c) 1988-2019, Gaussian, Inc.  All Rights Reserved.
  
 This is part of the Gaussian(R) 16 program.  It is based on
 the Gaussian(R) 09 system (copyright 2009, Gaussian, Inc.),
 the Gaussian(R) 03 system (copyright 2003, Gaussian, Inc.),
 the Gaussian(R) 98 system (copyright 1998, Gaussian, Inc.),
 the Gaussian(R) 94 system (copyright 1995, Gaussian, Inc.),
 the Gaussian 92(TM) system (copyright 1992, Gaussian, Inc.),
 the Gaussian 90(TM) system (copyright 1990, Gaussian, Inc.),
 the Gaussian 88(TM) system (copyright 1988, Gaussian, Inc.),
 the Gaussian 86(TM) system (copyright 1986, Carnegie Mellon
 University), and the Gaussian 82(TM) system (copyright 1983,
 Carnegie Mellon University). Gaussian is a federally registered
 trademark of Gaussian, Inc.
  
 This software contains proprietary and confidential information,
 including trade secrets, belonging to Gaussian, Inc.
  
 This software is provided under written license and may be
 used, copied, transmitted, or stored only in accord with that
 written license.
  
 The following legend is applicable only to US Government
 contracts under FAR:
  
                    RESTRICTED RIGHTS LEGEND
  
 Use, reproduction and disclosure by the US Government is
 subject to restrictions as set forth in subparagraphs (a)
 and (c) of the Commercial Computer Software - Restricted
 Rights clause in FAR 52.227-19.
  
 Gaussian, Inc.
 340 Quinnipiac St., Bldg. 40, Wallingford CT 06492
  
  
 ---------------------------------------------------------------
 Warning -- This program may not be used in any manner that
 competes with the business of Gaussian, Inc. or will provide
 assistance to any competitor of Gaussian, Inc.  The licensee
 of this program is prohibited from giving any competitor of
 Gaussian, Inc. access to this program.  By using this program,
 the user acknowledges that Gaussian, Inc. is engaged in the
 business of creating and licensing software in the field of
 computational chemistry and represents and warrants to the
 licensee that it is not a competitor of Gaussian, Inc. and that
 it will not use this program in any manner prohibited above.
 ---------------------------------------------------------------
  

 Cite this work as:
 Gaussian 16, Revision C.01,
 M. J. Frisch, G. W. Trucks, H. B. Schlegel, G. E. Scuseria, 
 M. A. Robb, J. R. Cheeseman, G. Scalmani, V. Barone, 
 G. A. Petersson, H. Nakatsuji, X. Li, M. Caricato, A. V. Marenich, 
 J. Bloino, B. G. Janesko, R. Gomperts, B. Mennucci, H. P. Hratchian, 
 J. V. Ortiz, A. F. Izmaylov, J. L. Sonnenberg, D. Williams-Young, 
 F. Ding, F. Lipparini, F. Egidi, J. Goings, B. Peng, A. Petrone, 
 T. Henderson, D. Ranasinghe, V. G. Zakrzewski, J. Gao, N. Rega, 
 G. Zheng, W. Liang, M. Hada, M. Ehara, K. Toyota, R. Fukuda, 
 J. Hasegawa, M. Ishida, T. Nakajima, Y. Honda, O. Kitao, H. Nakai, 
 T. Vreven, K. Throssell, J. A. Montgomery, Jr., J. E. Peralta, 
 F. Ogliaro, M. J. Bearpark, J. J. Heyd, E. N. Brothers, K. N. Kudin, 
 V. N. Staroverov, T. A. Keith, R. Kobayashi, J. Normand, 
 K. Raghavachari, A. P. Rendell, J. C. Burant, S. S. Iyengar, 
 J. Tomasi, M. Cossi, J. M. Millam, M. Klene, C. Adamo, R. Cammi, 
 J. W. Ochterski, R. L. Martin, K. Morokuma, O. Farkas, 
 J. B. Foresman, and D. J. Fox, Gaussian, Inc., Wallingford CT, 2019.
 
 ******************************************
 Gaussian 16:  ES64L-G16RevC.01  3-Jul-2019
                10-Jan-2024 
 ******************************************
 %nproc=8
 Will use up to    8 processors via shared memory.
 %mem=20GB
 --------------------------------------
 #p b3lyp em=gd3bj 6-31g(d) scan nosymm
 --------------------------------------
 1/38=1,60=1,172=1/1,8;
 2/12=2,15=1,17=6,18=5,29=3,40=1/2;
 3/5=1,6=6,7=1,11=2,25=1,30=1,74=-5,124=41/1,2,3;
 4//1;
 5/5=2,38=5/2;
 6/7=2,8=2,9=2,10=2,18=1,28=1/1;
 1/60=1/8(1);
 99/9=1/99;
 2/15=1,29=3/2;
 3/5=1,6=6,7=1,11=2,25=1,30=1,74=-5,124=41/1,2,3;
 4/5=5,16=3,69=1/1;
 5/5=2,38=5/2;
 1/60=1/8(-4);
 99/9=1/99;
 Leave Link    1 at Wed Jan 10 16:35:45 2024, MaxMem=  2684354560 cpu:               0.3 elap:               0.0
 (Enter /opt/g16/l101.exe)
 -------------------
 Title Card Required
 -------------------
 Symbolic Z-matrix:
 Charge =  0 Multiplicity = 1
 C
 H                    1    B1
 H                    1    B2       2    A1
 H                    1    B3       2    A2       3    D1       0
 O                    1    B4       2    A3       3    D2       0
 H                    5    B5       1    A4       2    D3       0
       Variables:
  B1                    1.09338                  
  B2                    1.10126                  
  B3                    1.10126                  
  B4                    1.41864                  
  B5                    0.96872                  
  A1                  108.05957                  
  A2                  108.05957                  
  A3                  106.69694                  
  A4                  107.66743                  
  D1                  117.09085                  
  D2                 -121.45457                  
  D3                  180.     Scan 18   10.     
 
 ITRead=  0  0  0  0  0  0
 MicOpt= -1 -1 -1 -1 -1 -1
 NAtoms=      6 NQM=        6 NQMF=       0 NMMI=      0 NMMIF=      0
                NMic=       0 NMicF=      0.
                    Isotopes and Nuclear Properties:
 (Nuclear quadrupole moments (NQMom) in fm**2, nuclear magnetic moments (NMagM)
  in nuclear magnetons)

  Atom         1           2           3           4           5           6
 IAtWgt=          12           1           1           1          16           1
 AtmWgt=  12.0000000   1.0078250   1.0078250   1.0078250  15.9949146   1.0078250
 NucSpn=           0           1           1           1           0           1
 AtZEff=  -0.0000000  -0.0000000  -0.0000000  -0.0000000  -0.0000000  -0.0000000
 NQMom=    0.0000000   0.0000000   0.0000000   0.0000000   0.0000000   0.0000000
 NMagM=    0.0000000   2.7928460   2.7928460   2.7928460   0.0000000   2.7928460
 AtZNuc=   6.0000000   1.0000000   1.0000000   1.0000000   8.0000000   1.0000000
 Leave Link  101 at Wed Jan 10 16:35:45 2024, MaxMem=  2684354560 cpu:               0.9 elap:               0.1
 (Enter /opt/g16/l108.exe)
 Scan the potential surface.
 Variable   Value     No. Steps Step-Size
 -------- ----------- --------- ---------
    12     180.000000      18     10.0000
 A total of     19 points will be computed.
 Leave Link  108 at Wed Jan 10 16:35:45 2024, MaxMem=  2684354560 cpu:               0.1 elap:               0.0
 (Enter /opt/g16/l202.exe)
 ---------------------------------------------------------------------------------------------------
                            Z-MATRIX (ANGSTROMS AND DEGREES)
   CD    Cent   Atom    N1       Length/X        N2       Alpha/Y        N3        Beta/Z          J
 ---------------------------------------------------------------------------------------------------
      1      1  C 
      2      2  H        1   1.093379(     1)
      3      3  H        1   1.101259(     2)      2  108.060(     6)
      4      4  H        1   1.101259(     3)      2  108.060(     7)      3  117.091(    10)      0
      5      5  O        1   1.418639(     4)      2  106.697(     8)      3 -121.455(    11)      0
      6      6  H        5   0.968723(     5)      1  107.667(     9)      2  180.000(    12)      0
 ---------------------------------------------------------------------------------------------------
                         Z-Matrix orientation:                         
 ---------------------------------------------------------------------
 Center     Atomic      Atomic             Coordinates (Angstroms)
 Number     Number       Type             X           Y           Z
 ---------------------------------------------------------------------
      1          6           0        0.000000    0.000000    0.000000
      2          1           0        0.000000    0.000000    1.093379
      3          1           0        1.047005    0.000000   -0.341396
      4          1           0       -0.476809   -0.932133   -0.341396
      5          8           0       -0.709066    1.159152   -0.407588
      6          1           0       -0.717628    1.173149   -1.376172
 ---------------------------------------------------------------------
                    Distance matrix (angstroms):
                    1          2          3          4          5
     1  C    0.000000
     2  H    1.093379   0.000000
     3  H    1.101259   1.776176   0.000000
     4  H    1.101259   1.776176   1.786304   0.000000
     5  O    1.418639   2.024676   2.105184   2.105184   0.000000
     6  H    1.945538   2.826650   2.358170   2.358170   0.968723
                    6
     6  H    0.000000
 Symmetry turned off by external request.
 Stoichiometry    CH4O
 Framework group  CS[SG(CH2O),X(H2)]
 Deg. of freedom     8
 Full point group                 CS      NOp   2
 Rotational constants (GHZ):         127.2086751          24.7760624          23.8895012
 Leave Link  202 at Wed Jan 10 16:35:45 2024, MaxMem=  2684354560 cpu:               0.0 elap:               0.0
 (Enter /opt/g16/l301.exe)
 Standard basis: 6-31G(d) (6D, 7F)
 Ernie: Thresh=  0.10000D-02 Tol=  0.10000D-05 Strict=F.
    38 basis functions,    72 primitive gaussians,    38 cartesian basis functions
     9 alpha electrons        9 beta electrons
       nuclear repulsion energy        40.2179844930 Hartrees.
 IExCor=  402 DFT=T Ex+Corr=B3LYP ExCW=0 ScaHFX=  0.200000
 ScaDFX=  0.800000  0.720000  1.000000  0.810000 ScalE2=  1.000000  1.000000
 IRadAn=      5 IRanWt=     -1 IRanGd=            0 ICorTp=0 IEmpDi=141
 NAtoms=    6 NActive=    6 NUniq=    6 SFac= 1.00D+00 NAtFMM=   60 NAOKFM=F Big=F
 Integral buffers will be    131072 words long.
 Raffenetti 2 integral format.
 Two-electron integral symmetry is turned off.
 R6Disp:  Grimme-D3(BJ) Dispersion energy=       -0.0031035293 Hartrees.
 Nuclear repulsion after empirical dispersion term =       40.2148809637 Hartrees.
 Leave Link  301 at Wed Jan 10 16:35:45 2024, MaxMem=  2684354560 cpu:               0.3 elap:               0.0
 (Enter /opt/g16/l302.exe)
 NPDir=0 NMtPBC=     1 NCelOv=     1 NCel=       1 NClECP=     1 NCelD=      1
         NCelK=      1 NCelE2=     1 NClLst=     1 CellRange=     0.0.
 One-electron integrals computed using PRISM.
 NBasis=    38 RedAO= T EigKep=  9.82D-03  NBF=    38
 NBsUse=    38 1.00D-06 EigRej= -1.00D+00 NBFU=    38
 Precomputing XC quadrature grid using
 IXCGrd= 4 IRadAn=           5 IRanWt=          -1 IRanGd=           0 AccXCQ= 0.00D+00.
 Generated NRdTot=       0 NPtTot=           0 NUsed=           0 NTot=          32
 NSgBfM=    38    38    38    38    38 MxSgAt=     6 MxSgA2=     6.
 Leave Link  302 at Wed Jan 10 16:35:45 2024, MaxMem=  2684354560 cpu:               1.0 elap:               0.1
 (Enter /opt/g16/l303.exe)
 DipDrv:  MaxL=1.
 Leave Link  303 at Wed Jan 10 16:35:45 2024, MaxMem=  2684354560 cpu:               0.1 elap:               0.0
 (Enter /opt/g16/l401.exe)
 ExpMin= 1.61D-01 ExpMax= 5.48D+03 ExpMxC= 8.25D+02 IAcc=3 IRadAn=         5 AccDes= 0.00D+00
 Harris functional with IExCor=  402 and IRadAn=       5 diagonalized for initial guess.
 HarFok:  IExCor=  402 AccDes= 0.00D+00 IRadAn=         5 IDoV= 1 UseB2=F ITyADJ=14
 ICtDFT=  3500011 ScaDFX=  1.000000  1.000000  1.000000  1.000000
 FoFCou: FMM=F IPFlag=           0 FMFlag=      100000 FMFlg1=           0
         NFxFlg=           0 DoJE=T BraDBF=F KetDBF=T FulRan=T
         wScrn=  0.000000 ICntrl=       500 IOpCl=  0 I1Cent=   200000004 NGrid=           0
         NMat0=    1 NMatS0=      1 NMatT0=    0 NMatD0=    1 NMtDS0=    0 NMtDT0=    0
 Symmetry not used in FoFCou.
 Harris En= -115.747485193352    
 JPrj=0 DoOrth=F DoCkMO=F.
 Leave Link  401 at Wed Jan 10 16:35:46 2024, MaxMem=  2684354560 cpu:               1.9 elap:               0.3
 (Enter /opt/g16/l502.exe)
 Keep R1 ints in memory in canonical form, NReq=7188797.
 FoFCou: FMM=F IPFlag=           0 FMFlag=           0 FMFlg1=           0
         NFxFlg=           0 DoJE=F BraDBF=F KetDBF=F FulRan=T
         wScrn=  0.000000 ICntrl=       600 IOpCl=  0 I1Cent=           0 NGrid=           0
         NMat0=    1 NMatS0=    741 NMatT0=    0 NMatD0=    1 NMtDS0=    0 NMtDT0=    0
 Symmetry not used in FoFCou.
 Two-electron integral symmetry not used.
 Closed shell SCF:
 Using DIIS extrapolation, IDIIS=  1040.
 NGot=  2684354560 LenX=  2684075777 LenY=  2684073892
 Requested convergence on RMS density matrix=1.00D-08 within 128 cycles.
 Requested convergence on MAX density matrix=1.00D-06.
 Requested convergence on             energy=1.00D-06.
 No special actions if energy rises.
 Integral accuracy reduced to 1.0D-05 until final iterations.

 Cycle   1  Pass 0  IDiag  1:
 E= -115.638790684120    
 DIIS: error= 4.09D-02 at cycle   1 NSaved=   1.
 NSaved= 1 IEnMin= 1 EnMin= -115.638790684120     IErMin= 1 ErrMin= 4.09D-02
 ErrMax= 4.09D-02  0.00D+00 EMaxC= 1.00D-01 BMatC= 8.73D-02 BMatP= 8.73D-02
 IDIUse=3 WtCom= 5.91D-01 WtEn= 4.09D-01
 Coeff-Com:  0.100D+01
 Coeff-En:   0.100D+01
 Coeff:      0.100D+01
 Gap=     0.278 Goal=   None    Shift=    0.000
 GapD=    0.278 DampG=1.000 DampE=0.500 DampFc=0.5000 IDamp=-1.
 Damping current iteration by 5.00D-01
 RMSDP=1.59D-02 MaxDP=1.38D-01              OVMax= 1.46D-01

 Cycle   2  Pass 0  IDiag  1:
 E= -115.670601565982     Delta-E=       -0.031810881862 Rises=F Damp=T
 DIIS: error= 9.85D-03 at cycle   2 NSaved=   2.
 NSaved= 2 IEnMin= 2 EnMin= -115.670601565982     IErMin= 2 ErrMin= 9.85D-03
 ErrMax= 9.85D-03  0.00D+00 EMaxC= 1.00D-01 BMatC= 5.56D-03 BMatP= 8.73D-02
 IDIUse=3 WtCom= 9.02D-01 WtEn= 9.85D-02
 Coeff-Com:  0.137D+00 0.863D+00
 Coeff-En:   0.199D+00 0.801D+00
 Coeff:      0.143D+00 0.857D+00
 Gap=     0.343 Goal=   None    Shift=    0.000
 RMSDP=2.44D-03 MaxDP=1.84D-02 DE=-3.18D-02 OVMax= 8.88D-02

 Cycle   3  Pass 0  IDiag  1:
 E= -115.716339927692     Delta-E=       -0.045738361710 Rises=F Damp=F
 DIIS: error= 4.08D-03 at cycle   3 NSaved=   3.
 NSaved= 3 IEnMin= 3 EnMin= -115.716339927692     IErMin= 3 ErrMin= 4.08D-03
 ErrMax= 4.08D-03  0.00D+00 EMaxC= 1.00D-01 BMatC= 1.38D-03 BMatP= 5.56D-03
 IDIUse=3 WtCom= 9.59D-01 WtEn= 4.08D-02
 Coeff-Com:  0.308D-01 0.316D+00 0.653D+00
 Coeff-En:   0.000D+00 0.000D+00 0.100D+01
 Coeff:      0.295D-01 0.304D+00 0.667D+00
 Gap=     0.339 Goal=   None    Shift=    0.000
 RMSDP=1.02D-03 MaxDP=1.06D-02 DE=-4.57D-02 OVMax= 1.35D-02

 Cycle   4  Pass 0  IDiag  1:
 E= -115.717190055007     Delta-E=       -0.000850127315 Rises=F Damp=F
 DIIS: error= 2.28D-03 at cycle   4 NSaved=   4.
 NSaved= 4 IEnMin= 4 EnMin= -115.717190055007     IErMin= 4 ErrMin= 2.28D-03
 ErrMax= 2.28D-03  0.00D+00 EMaxC= 1.00D-01 BMatC= 3.84D-04 BMatP= 1.38D-03
 IDIUse=3 WtCom= 9.77D-01 WtEn= 2.28D-02
 Coeff-Com:  0.489D-02 0.572D-01 0.352D+00 0.586D+00
 Coeff-En:   0.000D+00 0.000D+00 0.209D+00 0.791D+00
 Coeff:      0.478D-02 0.559D-01 0.348D+00 0.591D+00
 Gap=     0.340 Goal=   None    Shift=    0.000
 RMSDP=3.73D-04 MaxDP=4.10D-03 DE=-8.50D-04 OVMax= 5.11D-03

 Cycle   5  Pass 0  IDiag  1:
 E= -115.717505628801     Delta-E=       -0.000315573793 Rises=F Damp=F
 DIIS: error= 3.41D-04 at cycle   5 NSaved=   5.
 NSaved= 5 IEnMin= 5 EnMin= -115.717505628801     IErMin= 5 ErrMin= 3.41D-04
 ErrMax= 3.41D-04  0.00D+00 EMaxC= 1.00D-01 BMatC= 4.17D-06 BMatP= 3.84D-04
 IDIUse=3 WtCom= 9.97D-01 WtEn= 3.41D-03
 Coeff-Com:  0.718D-03-0.236D-02 0.618D-01 0.163D+00 0.777D+00
 Coeff-En:   0.000D+00 0.000D+00 0.000D+00 0.000D+00 0.100D+01
 Coeff:      0.715D-03-0.235D-02 0.616D-01 0.163D+00 0.777D+00
 Gap=     0.340 Goal=   None    Shift=    0.000
 RMSDP=3.81D-05 MaxDP=3.30D-04 DE=-3.16D-04 OVMax= 4.96D-04

 Cycle   6  Pass 0  IDiag  1:
 E= -115.717509102824     Delta-E=       -0.000003474024 Rises=F Damp=F
 DIIS: error= 1.19D-05 at cycle   6 NSaved=   6.
 NSaved= 6 IEnMin= 6 EnMin= -115.717509102824     IErMin= 6 ErrMin= 1.19D-05
 ErrMax= 1.19D-05  0.00D+00 EMaxC= 1.00D-01 BMatC= 7.44D-09 BMatP= 4.17D-06
 IDIUse=1 WtCom= 1.00D+00 WtEn= 0.00D+00
 Coeff-Com:  0.167D-03-0.651D-03 0.303D-02 0.816D-02 0.569D-01 0.932D+00
 Coeff:      0.167D-03-0.651D-03 0.303D-02 0.816D-02 0.569D-01 0.932D+00
 Gap=     0.340 Goal=   None    Shift=    0.000
 RMSDP=3.82D-06 MaxDP=2.63D-05 DE=-3.47D-06 OVMax= 4.26D-05

 Initial convergence to 1.0D-05 achieved.  Increase integral accuracy.
 Cycle   7  Pass 1  IDiag  1:
 E= -115.717509364110     Delta-E=       -0.000000261286 Rises=F Damp=F
 DIIS: error= 1.99D-06 at cycle   1 NSaved=   1.
 NSaved= 1 IEnMin= 1 EnMin= -115.717509364110     IErMin= 1 ErrMin= 1.99D-06
 ErrMax= 1.99D-06  0.00D+00 EMaxC= 1.00D-01 BMatC= 1.95D-10 BMatP= 1.95D-10
 IDIUse=1 WtCom= 1.00D+00 WtEn= 0.00D+00
 Coeff-Com:  0.100D+01
 Coeff:      0.100D+01
 Gap=     0.340 Goal=   None    Shift=    0.000
 RMSDP=3.82D-06 MaxDP=2.63D-05 DE=-2.61D-07 OVMax= 9.79D-06

 Cycle   8  Pass 1  IDiag  1:
 E= -115.717509364209     Delta-E=       -0.000000000099 Rises=F Damp=F
 DIIS: error= 1.62D-06 at cycle   2 NSaved=   2.
 NSaved= 2 IEnMin= 2 EnMin= -115.717509364209     IErMin= 2 ErrMin= 1.62D-06
 ErrMax= 1.62D-06  0.00D+00 EMaxC= 1.00D-01 BMatC= 1.68D-10 BMatP= 1.95D-10
 IDIUse=1 WtCom= 1.00D+00 WtEn= 0.00D+00
 Coeff-Com:  0.478D+00 0.522D+00
 Coeff:      0.478D+00 0.522D+00
 Gap=     0.340 Goal=   None    Shift=    0.000
 RMSDP=3.27D-07 MaxDP=3.33D-06 DE=-9.85D-11 OVMax= 4.04D-06

 Cycle   9  Pass 1  IDiag  1:
 E= -115.717509364333     Delta-E=       -0.000000000124 Rises=F Damp=F
 DIIS: error= 5.70D-07 at cycle   3 NSaved=   3.
 NSaved= 3 IEnMin= 3 EnMin= -115.717509364333     IErMin= 3 ErrMin= 5.70D-07
 ErrMax= 5.70D-07  0.00D+00 EMaxC= 1.00D-01 BMatC= 1.91D-11 BMatP= 1.68D-10
 IDIUse=1 WtCom= 1.00D+00 WtEn= 0.00D+00
 Coeff-Com:  0.134D+00 0.272D+00 0.593D+00
 Coeff:      0.134D+00 0.272D+00 0.593D+00
 Gap=     0.340 Goal=   None    Shift=    0.000
 RMSDP=7.37D-08 MaxDP=9.00D-07 DE=-1.24D-10 OVMax= 8.83D-07

 Cycle  10  Pass 1  IDiag  1:
 E= -115.717509364346     Delta-E=       -0.000000000013 Rises=F Damp=F
 DIIS: error= 5.95D-08 at cycle   4 NSaved=   4.
 NSaved= 4 IEnMin= 4 EnMin= -115.717509364346     IErMin= 4 ErrMin= 5.95D-08
 ErrMax= 5.95D-08  0.00D+00 EMaxC= 1.00D-01 BMatC= 1.47D-13 BMatP= 1.91D-11
 IDIUse=1 WtCom= 1.00D+00 WtEn= 0.00D+00
 Coeff-Com:  0.113D-01 0.389D-01 0.121D+00 0.828D+00
 Coeff:      0.113D-01 0.389D-01 0.121D+00 0.828D+00
 Gap=     0.340 Goal=   None    Shift=    0.000
 RMSDP=1.58D-08 MaxDP=1.20D-07 DE=-1.32D-11 OVMax= 1.67D-07

 Cycle  11  Pass 1  IDiag  1:
 E= -115.717509364346     Delta-E=       -0.000000000000 Rises=F Damp=F
 DIIS: error= 3.10D-08 at cycle   5 NSaved=   5.
 NSaved= 5 IEnMin= 5 EnMin= -115.717509364346     IErMin= 5 ErrMin= 3.10D-08
 ErrMax= 3.10D-08  0.00D+00 EMaxC= 1.00D-01 BMatC= 5.36D-14 BMatP= 1.47D-13
 IDIUse=1 WtCom= 1.00D+00 WtEn= 0.00D+00
 Coeff-Com: -0.618D-02-0.479D-02 0.581D-02 0.410D+00 0.595D+00
 Coeff:     -0.618D-02-0.479D-02 0.581D-02 0.410D+00 0.595D+00
 Gap=     0.340 Goal=   None    Shift=    0.000
 RMSDP=5.31D-09 MaxDP=5.84D-08 DE=-2.56D-13 OVMax= 7.26D-08

 SCF Done:  E(RB3LYP) =  -115.717509364     A.U. after   11 cycles
            NFock= 11  Conv=0.53D-08     -V/T= 2.0089
 KE= 1.147019804809D+02 PE=-3.515467949616D+02 EE= 8.091242415268D+01
 Leave Link  502 at Wed Jan 10 16:35:47 2024, MaxMem=  2684354560 cpu:               6.2 elap:               0.8
 (Enter /opt/g16/l601.exe)
 Copying SCF densities to generalized density rwf, IOpCl= 0 IROHF=0.

 **********************************************************************

            Population analysis using the SCF Density.

 **********************************************************************

 Alpha  occ. eigenvalues --  -19.14013 -10.22469  -1.01048  -0.67826  -0.50232
 Alpha  occ. eigenvalues --   -0.43400  -0.41918  -0.33026  -0.26454
 Alpha virt. eigenvalues --    0.07525   0.13074   0.16671   0.17517   0.20590
 Alpha virt. eigenvalues --    0.53423   0.56725   0.57743   0.78634   0.84878
 Alpha virt. eigenvalues --    0.86912   0.90173   0.95381   0.97726   1.02227
 Alpha virt. eigenvalues --    1.11449   1.46266   1.50277   1.58519   1.74376
 Alpha virt. eigenvalues --    2.03910   2.11372   2.12819   2.34972   2.40348
 Alpha virt. eigenvalues --    2.44597   2.79222   3.69731   4.21357
          Condensed to atoms (all electrons):
               1          2          3          4          5          6
     1  C    4.846791   0.388977   0.366588   0.366588   0.267240  -0.031087
     2  H    0.388977   0.553859  -0.036649  -0.036649  -0.037841   0.006922
     3  H    0.366588  -0.036649   0.633706  -0.050845  -0.036843  -0.005197
     4  H    0.366588  -0.036649  -0.050845   0.633706  -0.036843  -0.005197
     5  O    0.267240  -0.037841  -0.036843  -0.036843   8.211997   0.237510
     6  H   -0.031087   0.006922  -0.005197  -0.005197   0.237510   0.406595
 Mulliken charges:
               1
     1  C   -0.205097
     2  H    0.161381
     3  H    0.129240
     4  H    0.129241
     5  O   -0.605220
     6  H    0.390455
 Sum of Mulliken charges =  -0.00000
 Mulliken charges with hydrogens summed into heavy atoms:
               1
     1  C    0.214765
     5  O   -0.214765
 Electronic spatial extent (au):  <R**2>=            113.0967
 Charge=             -0.0000 electrons
 Dipole moment (field-independent basis, Debye):
    X=              0.6634    Y=             -1.0844    Z=             -1.1198  Tot=              1.6941
 Quadrupole moment (field-independent basis, Debye-Ang):
   XX=            -14.1451   YY=            -15.0862   ZZ=             -9.9815
   XY=              0.9199   XZ=              0.9179   YZ=             -1.5006
 Traceless Quadrupole moment (field-independent basis, Debye-Ang):
   XX=             -1.0742   YY=             -2.0152   ZZ=              3.0894
   XY=              0.9199   XZ=              0.9179   YZ=             -1.5006
 Octapole moment (field-independent basis, Debye-Ang**2):
  XXX=             12.7240  YYY=            -21.3008  ZZZ=              3.8047  XYY=              4.6692
  XXY=             -7.1329  XXZ=              1.8033  XZZ=              1.4969  YZZ=             -2.4470
  YYZ=              0.6656  XYZ=              1.1120
 Hexadecapole moment (field-independent basis, Debye-Ang**3):
 XXXX=            -37.1883 YYYY=            -67.6674 ZZZZ=            -20.6330 XXXY=             14.8267
 XXXZ=             -5.5304 YYYX=             14.9657 YYYZ=              7.0651 ZZZX=             -2.2563
 ZZZY=              3.6885 XXYY=            -17.5428 XXZZ=             -9.1936 YYZZ=            -11.1096
 XXYZ=              2.2260 YYXZ=             -0.1530 ZZXY=              1.8729
 N-N= 4.021488096373D+01 E-N=-3.515467929134D+02  KE= 1.147019804809D+02
 No NMR shielding tensors so no spin-rotation constants.
 Leave Link  601 at Wed Jan 10 16:35:47 2024, MaxMem=  2684354560 cpu:               0.9 elap:               0.1
 (Enter /opt/g16/l108.exe)
 Variable Step   Value    
 -------- ---- -----------
    12       1    3.316126
 Leave Link  108 at Wed Jan 10 16:35:47 2024, MaxMem=  2684354560 cpu:               0.1 elap:               0.0
 (Enter /opt/g16/l202.exe)
 ---------------------------------------------------------------------------------------------------
                            Z-MATRIX (ANGSTROMS AND DEGREES)
   CD    Cent   Atom    N1       Length/X        N2       Alpha/Y        N3        Beta/Z          J
 ---------------------------------------------------------------------------------------------------
      1      1  C 
      2      2  H        1   1.093379(     1)
      3      3  H        1   1.101259(     2)      2  108.060(     6)
      4      4  H        1   1.101259(     3)      2  108.060(     7)      3  117.091(    10)      0
      5      5  O        1   1.418639(     4)      2  106.697(     8)      3 -121.455(    11)      0
      6      6  H        5   0.968723(     5)      1  107.667(     9)      2  190.000(    12)      0
 ---------------------------------------------------------------------------------------------------
                         Z-Matrix orientation:                         
 ---------------------------------------------------------------------
 Center     Atomic      Atomic             Coordinates (Angstroms)
 Number     Number       Type             X           Y           Z
 ---------------------------------------------------------------------
      1          6           0        0.000000    0.000000    0.000000
      2          1           0        0.000000    0.000000    1.093379
      3          1           0        1.047005    0.000000   -0.341396
      4          1           0       -0.476809   -0.932133   -0.341396
      5          8           0       -0.709066    1.159152   -0.407588
      6          1           0       -0.856460    1.092947   -1.362740
 ---------------------------------------------------------------------
                    Distance matrix (angstroms):
                    1          2          3          4          5
     1  C    0.000000
     2  H    1.093379   0.000000
     3  H    1.101259   1.776176   0.000000
     4  H    1.101259   1.776176   1.786304   0.000000
     5  O    1.418639   2.024676   2.105184   2.105184   0.000000
     6  H    1.945538   2.821450   2.420920   2.299615   0.968723
                    6
     6  H    0.000000
 Symmetry turned off by external request.
 Stoichiometry    CH4O
 Framework group  C1[X(CH4O)]
 Deg. of freedom    12
 Full point group                 C1      NOp   1
 Rotational constants (GHZ):         127.2123902          24.7771639          23.8885056
 Leave Link  202 at Wed Jan 10 16:35:47 2024, MaxMem=  2684354560 cpu:               0.1 elap:               0.0
 (Enter /opt/g16/l301.exe)
 Standard basis: 6-31G(d) (6D, 7F)
 Ernie: Thresh=  0.10000D-02 Tol=  0.10000D-05 Strict=F.
    38 basis functions,    72 primitive gaussians,    38 cartesian basis functions
     9 alpha electrons        9 beta electrons
       nuclear repulsion energy        40.2182271011 Hartrees.
 IExCor=  402 DFT=T Ex+Corr=B3LYP ExCW=0 ScaHFX=  0.200000
 ScaDFX=  0.800000  0.720000  1.000000  0.810000 ScalE2=  1.000000  1.000000
 IRadAn=      5 IRanWt=     -1 IRanGd=            0 ICorTp=0 IEmpDi=141
 NAtoms=    6 NActive=    6 NUniq=    6 SFac= 1.00D+00 NAtFMM=   60 NAOKFM=F Big=F
 Integral buffers will be    131072 words long.
 Raffenetti 2 integral format.
 Two-electron integral symmetry is turned off.
 R6Disp:  Grimme-D3(BJ) Dispersion energy=       -0.0031034399 Hartrees.
 Nuclear repulsion after empirical dispersion term =       40.2151236612 Hartrees.
 Leave Link  301 at Wed Jan 10 16:35:47 2024, MaxMem=  2684354560 cpu:               0.3 elap:               0.0
 (Enter /opt/g16/l302.exe)
 NPDir=0 NMtPBC=     1 NCelOv=     1 NCel=       1 NClECP=     1 NCelD=      1
         NCelK=      1 NCelE2=     1 NClLst=     1 CellRange=     0.0.
 One-electron integrals computed using PRISM.
 NBasis=    38 RedAO= T EigKep=  9.82D-03  NBF=    38
 NBsUse=    38 1.00D-06 EigRej= -1.00D+00 NBFU=    38
 Precomputing XC quadrature grid using
 IXCGrd= 4 IRadAn=           5 IRanWt=          -1 IRanGd=           0 AccXCQ= 0.00D+00.
 Generated NRdTot=       0 NPtTot=           0 NUsed=           0 NTot=          32
 NSgBfM=    38    38    38    38    38 MxSgAt=     6 MxSgA2=     6.
 Leave Link  302 at Wed Jan 10 16:35:47 2024, MaxMem=  2684354560 cpu:               0.9 elap:               0.1
 (Enter /opt/g16/l303.exe)
 DipDrv:  MaxL=1.
 Leave Link  303 at Wed Jan 10 16:35:47 2024, MaxMem=  2684354560 cpu:               0.1 elap:               0.0
 (Enter /opt/g16/l401.exe)
 Initial guess from the checkpoint file:  "/home/jh-li/scratch/g16/Gau-71567.chk"
 B after Tr=    -0.000791   -0.000454    0.000072
         Rot=    0.999850    0.008632   -0.014980   -0.000256 Ang=   1.98 deg.
 Guess basis will be translated and rotated to current coordinates.
 JPrj=2 DoOrth=T DoCkMO=T.
 Generating alternative initial guess.
 ExpMin= 1.61D-01 ExpMax= 5.48D+03 ExpMxC= 8.25D+02 IAcc=3 IRadAn=         5 AccDes= 0.00D+00
 Harris functional with IExCor=  402 and IRadAn=       5 diagonalized for initial guess.
 HarFok:  IExCor=  402 AccDes= 0.00D+00 IRadAn=         5 IDoV= 1 UseB2=F ITyADJ=14
 ICtDFT=  3500011 ScaDFX=  1.000000  1.000000  1.000000  1.000000
 FoFCou: FMM=F IPFlag=           0 FMFlag=      100000 FMFlg1=           0
         NFxFlg=           0 DoJE=T BraDBF=F KetDBF=T FulRan=T
         wScrn=  0.000000 ICntrl=       500 IOpCl=  0 I1Cent=   200000004 NGrid=           0
         NMat0=    1 NMatS0=      1 NMatT0=    0 NMatD0=    1 NMtDS0=    0 NMtDT0=    0
 Symmetry not used in FoFCou.
 Harris En= -115.747374858293    
 Leave Link  401 at Wed Jan 10 16:35:47 2024, MaxMem=  2684354560 cpu:               2.3 elap:               0.3
 (Enter /opt/g16/l502.exe)
 Keep R1 ints in memory in canonical form, NReq=7188797.
 FoFCou: FMM=F IPFlag=           0 FMFlag=           0 FMFlg1=           0
         NFxFlg=           0 DoJE=F BraDBF=F KetDBF=F FulRan=T
         wScrn=  0.000000 ICntrl=       600 IOpCl=  0 I1Cent=           0 NGrid=           0
         NMat0=    1 NMatS0=    741 NMatT0=    0 NMatD0=    1 NMtDS0=    0 NMtDT0=    0
 Symmetry not used in FoFCou.
 Two-electron integral symmetry not used.
 Closed shell SCF:
 Using DIIS extrapolation, IDIIS=  1040.
 NGot=  2684354560 LenX=  2684075777 LenY=  2684073892
 Requested convergence on RMS density matrix=1.00D-08 within 128 cycles.
 Requested convergence on MAX density matrix=1.00D-06.
 Requested convergence on             energy=1.00D-06.
 No special actions if energy rises.
 Integral accuracy reduced to 1.0D-05 until final iterations.

 Cycle   1  Pass 0  IDiag  1:
 E= -115.715009832514    
 DIIS: error= 6.73D-03 at cycle   1 NSaved=   1.
 NSaved= 1 IEnMin= 1 EnMin= -115.715009832514     IErMin= 1 ErrMin= 6.73D-03
 ErrMax= 6.73D-03  0.00D+00 EMaxC= 1.00D-01 BMatC= 1.37D-03 BMatP= 1.37D-03
 IDIUse=3 WtCom= 9.33D-01 WtEn= 6.73D-02
 Coeff-Com:  0.100D+01
 Coeff-En:   0.100D+01
 Coeff:      0.100D+01
 Gap=     1.497 Goal=   None    Shift=    0.000
 GapD=    1.497 DampG=2.000 DampE=1.000 DampFc=2.0000 IDamp=-1.
 RMSDP=1.77D-03 MaxDP=2.08D-02              OVMax= 2.85D-02

 Cycle   2  Pass 0  IDiag  1:
 E= -115.717319657723     Delta-E=       -0.002309825209 Rises=F Damp=F
 DIIS: error= 6.74D-04 at cycle   2 NSaved=   2.
 NSaved= 2 IEnMin= 2 EnMin= -115.717319657723     IErMin= 2 ErrMin= 6.74D-04
 ErrMax= 6.74D-04  0.00D+00 EMaxC= 1.00D-01 BMatC= 1.78D-05 BMatP= 1.37D-03
 IDIUse=3 WtCom= 9.93D-01 WtEn= 6.74D-03
 Coeff-Com: -0.588D-01 0.106D+01
 Coeff-En:   0.000D+00 0.100D+01
 Coeff:     -0.584D-01 0.106D+01
 Gap=     0.340 Goal=   None    Shift=    0.000
 RMSDP=3.15D-04 MaxDP=2.79D-03 DE=-2.31D-03 OVMax= 5.12D-03

 Cycle   3  Pass 0  IDiag  1:
 E= -115.717343983672     Delta-E=       -0.000024325949 Rises=F Damp=F
 DIIS: error= 4.56D-04 at cycle   3 NSaved=   3.
 NSaved= 3 IEnMin= 3 EnMin= -115.717343983672     IErMin= 3 ErrMin= 4.56D-04
 ErrMax= 4.56D-04  0.00D+00 EMaxC= 1.00D-01 BMatC= 1.59D-05 BMatP= 1.78D-05
 IDIUse=3 WtCom= 9.95D-01 WtEn= 4.56D-03
 Coeff-Com: -0.429D-01 0.558D+00 0.485D+00
 Coeff-En:   0.000D+00 0.000D+00 0.100D+01
 Coeff:     -0.427D-01 0.555D+00 0.487D+00
 Gap=     0.339 Goal=   None    Shift=    0.000
 RMSDP=8.74D-05 MaxDP=9.64D-04 DE=-2.43D-05 OVMax= 9.32D-04

 Cycle   4  Pass 0  IDiag  1:
 E= -115.717354990405     Delta-E=       -0.000011006733 Rises=F Damp=F
 DIIS: error= 1.01D-04 at cycle   4 NSaved=   4.
 NSaved= 4 IEnMin= 4 EnMin= -115.717354990405     IErMin= 4 ErrMin= 1.01D-04
 ErrMax= 1.01D-04  0.00D+00 EMaxC= 1.00D-01 BMatC= 7.78D-07 BMatP= 1.59D-05
 IDIUse=3 WtCom= 9.99D-01 WtEn= 1.01D-03
 Coeff-Com: -0.122D-01 0.109D+00 0.206D+00 0.698D+00
 Coeff-En:   0.000D+00 0.000D+00 0.000D+00 0.100D+01
 Coeff:     -0.122D-01 0.109D+00 0.205D+00 0.698D+00
 Gap=     0.339 Goal=   None    Shift=    0.000
 RMSDP=2.17D-05 MaxDP=1.84D-04 DE=-1.10D-05 OVMax= 2.79D-04

 Cycle   5  Pass 0  IDiag  1:
 E= -115.717355586608     Delta-E=       -0.000000596203 Rises=F Damp=F
 DIIS: error= 2.14D-05 at cycle   5 NSaved=   5.
 NSaved= 5 IEnMin= 5 EnMin= -115.717355586608     IErMin= 5 ErrMin= 2.14D-05
 ErrMax= 2.14D-05  0.00D+00 EMaxC= 1.00D-01 BMatC= 2.64D-08 BMatP= 7.78D-07
 IDIUse=1 WtCom= 1.00D+00 WtEn= 0.00D+00
 Coeff-Com:  0.656D-03-0.166D-01 0.933D-02 0.171D+00 0.835D+00
 Coeff:      0.656D-03-0.166D-01 0.933D-02 0.171D+00 0.835D+00
 Gap=     0.339 Goal=   None    Shift=    0.000
 RMSDP=7.03D-06 MaxDP=6.44D-05 DE=-5.96D-07 OVMax= 9.40D-05

 Initial convergence to 1.0D-05 achieved.  Increase integral accuracy.
 Cycle   6  Pass 1  IDiag  1:
 E= -115.717355830666     Delta-E=       -0.000000244058 Rises=F Damp=F
 DIIS: error= 1.24D-05 at cycle   1 NSaved=   1.
 NSaved= 1 IEnMin= 1 EnMin= -115.717355830666     IErMin= 1 ErrMin= 1.24D-05
 ErrMax= 1.24D-05  0.00D+00 EMaxC= 1.00D-01 BMatC= 6.95D-09 BMatP= 6.95D-09
 IDIUse=1 WtCom= 1.00D+00 WtEn= 0.00D+00
 Coeff-Com:  0.100D+01
 Coeff:      0.100D+01
 Gap=     0.339 Goal=   None    Shift=    0.000
 RMSDP=7.03D-06 MaxDP=6.44D-05 DE=-2.44D-07 OVMax= 5.02D-05

 Cycle   7  Pass 1  IDiag  1:
 E= -115.717355828653     Delta-E=        0.000000002013 Rises=F Damp=F
 DIIS: error= 1.46D-05 at cycle   2 NSaved=   2.
 NSaved= 2 IEnMin= 1 EnMin= -115.717355830666     IErMin= 1 ErrMin= 1.24D-05
 ErrMax= 1.46D-05  0.00D+00 EMaxC= 1.00D-01 BMatC= 9.18D-09 BMatP= 6.95D-09
 IDIUse=1 WtCom= 1.00D+00 WtEn= 0.00D+00
 Coeff-Com:  0.535D+00 0.465D+00
 Coeff:      0.535D+00 0.465D+00
 Gap=     0.339 Goal=   None    Shift=    0.000
 RMSDP=1.99D-06 MaxDP=2.41D-05 DE= 2.01D-09 OVMax= 2.66D-05

 Cycle   8  Pass 1  IDiag  1:
 E= -115.717355837472     Delta-E=       -0.000000008819 Rises=F Damp=F
 DIIS: error= 6.60D-07 at cycle   3 NSaved=   3.
 NSaved= 3 IEnMin= 3 EnMin= -115.717355837472     IErMin= 3 ErrMin= 6.60D-07
 ErrMax= 6.60D-07  0.00D+00 EMaxC= 1.00D-01 BMatC= 3.25D-11 BMatP= 6.95D-09
 IDIUse=1 WtCom= 1.00D+00 WtEn= 0.00D+00
 Coeff-Com:  0.244D+00 0.217D+00 0.538D+00
 Coeff:      0.244D+00 0.217D+00 0.538D+00
 Gap=     0.339 Goal=   None    Shift=    0.000
 RMSDP=1.40D-07 MaxDP=1.47D-06 DE=-8.82D-09 OVMax= 1.58D-06

 Cycle   9  Pass 1  IDiag  1:
 E= -115.717355837493     Delta-E=       -0.000000000022 Rises=F Damp=F
 DIIS: error= 2.25D-07 at cycle   4 NSaved=   4.
 NSaved= 4 IEnMin= 4 EnMin= -115.717355837493     IErMin= 4 ErrMin= 2.25D-07
 ErrMax= 2.25D-07  0.00D+00 EMaxC= 1.00D-01 BMatC= 3.82D-12 BMatP= 3.25D-11
 IDIUse=1 WtCom= 1.00D+00 WtEn= 0.00D+00
 Coeff-Com:  0.420D-01 0.391D-01 0.259D+00 0.660D+00
 Coeff:      0.420D-01 0.391D-01 0.259D+00 0.660D+00
 Gap=     0.339 Goal=   None    Shift=    0.000
 RMSDP=4.90D-08 MaxDP=4.75D-07 DE=-2.15D-11 OVMax= 6.22D-07

 Cycle  10  Pass 1  IDiag  1:
 E= -115.717355837496     Delta-E=       -0.000000000003 Rises=F Damp=F
 DIIS: error= 3.75D-08 at cycle   5 NSaved=   5.
 NSaved= 5 IEnMin= 5 EnMin= -115.717355837496     IErMin= 5 ErrMin= 3.75D-08
 ErrMax= 3.75D-08  0.00D+00 EMaxC= 1.00D-01 BMatC= 9.66D-14 BMatP= 3.82D-12
 IDIUse=1 WtCom= 1.00D+00 WtEn= 0.00D+00
 Coeff-Com: -0.171D-01-0.149D-01-0.119D-01 0.133D+00 0.911D+00
 Coeff:     -0.171D-01-0.149D-01-0.119D-01 0.133D+00 0.911D+00
 Gap=     0.339 Goal=   None    Shift=    0.000
 RMSDP=1.80D-08 MaxDP=2.02D-07 DE=-3.07D-12 OVMax= 2.88D-07

 Cycle  11  Pass 1  IDiag  1:
 E= -115.717355837496     Delta-E=       -0.000000000000 Rises=F Damp=F
 DIIS: error= 1.95D-09 at cycle   6 NSaved=   6.
 NSaved= 6 IEnMin= 6 EnMin= -115.717355837496     IErMin= 6 ErrMin= 1.95D-09
 ErrMax= 1.95D-09  0.00D+00 EMaxC= 1.00D-01 BMatC= 2.36D-16 BMatP= 9.66D-14
 IDIUse=1 WtCom= 1.00D+00 WtEn= 0.00D+00
 Coeff-Com: -0.177D-02-0.159D-02-0.325D-02 0.498D-02 0.764D-01 0.925D+00
 Coeff:     -0.177D-02-0.159D-02-0.325D-02 0.498D-02 0.764D-01 0.925D+00
 Gap=     0.339 Goal=   None    Shift=    0.000
 RMSDP=8.13D-10 MaxDP=8.01D-09 DE=-2.27D-13 OVMax= 1.19D-08

 SCF Done:  E(RB3LYP) =  -115.717355837     A.U. after   11 cycles
            NFock= 11  Conv=0.81D-09     -V/T= 2.0088
 KE= 1.147023046880D+02 PE=-3.515479090879D+02 EE= 8.091312490128D+01
 Leave Link  502 at Wed Jan 10 16:35:48 2024, MaxMem=  2684354560 cpu:               6.8 elap:               0.9
 (Enter /opt/g16/l108.exe)
 Variable Step   Value    
 -------- ---- -----------
    12       2    3.490659
 Leave Link  108 at Wed Jan 10 16:35:48 2024, MaxMem=  2684354560 cpu:               0.0 elap:               0.0
 (Enter /opt/g16/l202.exe)
 ---------------------------------------------------------------------------------------------------
                            Z-MATRIX (ANGSTROMS AND DEGREES)
   CD    Cent   Atom    N1       Length/X        N2       Alpha/Y        N3        Beta/Z          J
 ---------------------------------------------------------------------------------------------------
      1      1  C 
      2      2  H        1   1.093379(     1)
      3      3  H        1   1.101259(     2)      2  108.060(     6)
      4      4  H        1   1.101259(     3)      2  108.060(     7)      3  117.091(    10)      0
      5      5  O        1   1.418639(     4)      2  106.697(     8)      3 -121.455(    11)      0
      6      6  H        5   0.968723(     5)      1  107.667(     9)      2  200.000(    12)      0
 ---------------------------------------------------------------------------------------------------
                         Z-Matrix orientation:                         
 ---------------------------------------------------------------------
 Center     Atomic      Atomic             Coordinates (Angstroms)
 Number     Number       Type             X           Y           Z
 ---------------------------------------------------------------------
      1          6           0        0.000000    0.000000    0.000000
      2          1           0        0.000000    0.000000    1.093379
      3          1           0        1.047005    0.000000   -0.341396
      4          1           0       -0.476809   -0.932133   -0.341396
      5          8           0       -0.709066    1.159152   -0.407588
      6          1           0       -0.995279    1.022055   -1.322853
 ---------------------------------------------------------------------
                    Distance matrix (angstroms):
                    1          2          3          4          5
     1  C    0.000000
     2  H    1.093379   0.000000
     3  H    1.101259   1.776176   0.000000
     4  H    1.101259   1.776176   1.786304   0.000000
     5  O    1.418639   2.024676   2.105184   2.105184   0.000000
     6  H    1.945538   2.805950   2.485715   2.247425   0.968723
                    6
     6  H    0.000000
 Symmetry turned off by external request.
 Stoichiometry    CH4O
 Framework group  C1[X(CH4O)]
 Deg. of freedom    12
 Full point group                 C1      NOp   1
 Rotational constants (GHZ):         127.2234157          24.7803174          23.8856595
 Leave Link  202 at Wed Jan 10 16:35:48 2024, MaxMem=  2684354560 cpu:               0.0 elap:               0.0
 (Enter /opt/g16/l301.exe)
 Standard basis: 6-31G(d) (6D, 7F)
 Ernie: Thresh=  0.10000D-02 Tol=  0.10000D-05 Strict=F.
    38 basis functions,    72 primitive gaussians,    38 cartesian basis functions
     9 alpha electrons        9 beta electrons
       nuclear repulsion energy        40.2189090316 Hartrees.
 IExCor=  402 DFT=T Ex+Corr=B3LYP ExCW=0 ScaHFX=  0.200000
 ScaDFX=  0.800000  0.720000  1.000000  0.810000 ScalE2=  1.000000  1.000000
 IRadAn=      5 IRanWt=     -1 IRanGd=            0 ICorTp=0 IEmpDi=141
 NAtoms=    6 NActive=    6 NUniq=    6 SFac= 1.00D+00 NAtFMM=   60 NAOKFM=F Big=F
 Integral buffers will be    131072 words long.
 Raffenetti 2 integral format.
 Two-electron integral symmetry is turned off.
 R6Disp:  Grimme-D3(BJ) Dispersion energy=       -0.0031031993 Hartrees.
 Nuclear repulsion after empirical dispersion term =       40.2158058323 Hartrees.
 Leave Link  301 at Wed Jan 10 16:35:48 2024, MaxMem=  2684354560 cpu:               0.3 elap:               0.0
 (Enter /opt/g16/l302.exe)
 NPDir=0 NMtPBC=     1 NCelOv=     1 NCel=       1 NClECP=     1 NCelD=      1
         NCelK=      1 NCelE2=     1 NClLst=     1 CellRange=     0.0.
 One-electron integrals computed using PRISM.
 NBasis=    38 RedAO= T EigKep=  9.80D-03  NBF=    38
 NBsUse=    38 1.00D-06 EigRej= -1.00D+00 NBFU=    38
 Precomputing XC quadrature grid using
 IXCGrd= 4 IRadAn=           5 IRanWt=          -1 IRanGd=           0 AccXCQ= 0.00D+00.
 Generated NRdTot=       0 NPtTot=           0 NUsed=           0 NTot=          32
 NSgBfM=    38    38    38    38    38 MxSgAt=     6 MxSgA2=     6.
 Leave Link  302 at Wed Jan 10 16:35:48 2024, MaxMem=  2684354560 cpu:               1.0 elap:               0.1
 (Enter /opt/g16/l303.exe)
 DipDrv:  MaxL=1.
 Leave Link  303 at Wed Jan 10 16:35:48 2024, MaxMem=  2684354560 cpu:               0.1 elap:               0.0
 (Enter /opt/g16/l401.exe)
 Initial guess from the checkpoint file:  "/home/jh-li/scratch/g16/Gau-71567.chk"
 B after Tr=    -0.000796   -0.000399    0.000183
         Rot=    0.999851    0.007845   -0.015406   -0.000106 Ang=   1.98 deg.
 Guess basis will be translated and rotated to current coordinates.
 JPrj=2 DoOrth=T DoCkMO=T.
 Generating alternative initial guess.
 ExpMin= 1.61D-01 ExpMax= 5.48D+03 ExpMxC= 8.25D+02 IAcc=3 IRadAn=         5 AccDes= 0.00D+00
 Harris functional with IExCor=  402 and IRadAn=       5 diagonalized for initial guess.
 HarFok:  IExCor=  402 AccDes= 0.00D+00 IRadAn=         5 IDoV= 1 UseB2=F ITyADJ=14
 ICtDFT=  3500011 ScaDFX=  1.000000  1.000000  1.000000  1.000000
 FoFCou: FMM=F IPFlag=           0 FMFlag=      100000 FMFlg1=           0
         NFxFlg=           0 DoJE=T BraDBF=F KetDBF=T FulRan=T
         wScrn=  0.000000 ICntrl=       500 IOpCl=  0 I1Cent=   200000004 NGrid=           0
         NMat0=    1 NMatS0=      1 NMatT0=    0 NMatD0=    1 NMtDS0=    0 NMtDT0=    0
 Symmetry not used in FoFCou.
 Harris En= -115.747066769778    
 Leave Link  401 at Wed Jan 10 16:35:49 2024, MaxMem=  2684354560 cpu:               2.3 elap:               0.3
 (Enter /opt/g16/l502.exe)
 Keep R1 ints in memory in canonical form, NReq=7188797.
 FoFCou: FMM=F IPFlag=           0 FMFlag=           0 FMFlg1=           0
         NFxFlg=           0 DoJE=F BraDBF=F KetDBF=F FulRan=T
         wScrn=  0.000000 ICntrl=       600 IOpCl=  0 I1Cent=           0 NGrid=           0
         NMat0=    1 NMatS0=    741 NMatT0=    0 NMatD0=    1 NMtDS0=    0 NMtDT0=    0
 Symmetry not used in FoFCou.
 Two-electron integral symmetry not used.
 Closed shell SCF:
 Using DIIS extrapolation, IDIIS=  1040.
 NGot=  2684354560 LenX=  2684075777 LenY=  2684073892
 Requested convergence on RMS density matrix=1.00D-08 within 128 cycles.
 Requested convergence on MAX density matrix=1.00D-06.
 Requested convergence on             energy=1.00D-06.
 No special actions if energy rises.
 Integral accuracy reduced to 1.0D-05 until final iterations.

 Cycle   1  Pass 0  IDiag  1:
 E= -115.714565317026    
 DIIS: error= 6.67D-03 at cycle   1 NSaved=   1.
 NSaved= 1 IEnMin= 1 EnMin= -115.714565317026     IErMin= 1 ErrMin= 6.67D-03
 ErrMax= 6.67D-03  0.00D+00 EMaxC= 1.00D-01 BMatC= 1.37D-03 BMatP= 1.37D-03
 IDIUse=3 WtCom= 9.33D-01 WtEn= 6.67D-02
 Coeff-Com:  0.100D+01
 Coeff-En:   0.100D+01
 Coeff:      0.100D+01
 Gap=     1.496 Goal=   None    Shift=    0.000
 GapD=    1.496 DampG=2.000 DampE=1.000 DampFc=2.0000 IDamp=-1.
 RMSDP=1.78D-03 MaxDP=2.08D-02              OVMax= 2.88D-02

 Cycle   2  Pass 0  IDiag  1:
 E= -115.716888276179     Delta-E=       -0.002322959153 Rises=F Damp=F
 DIIS: error= 6.20D-04 at cycle   2 NSaved=   2.
 NSaved= 2 IEnMin= 2 EnMin= -115.716888276179     IErMin= 2 ErrMin= 6.20D-04
 ErrMax= 6.20D-04  0.00D+00 EMaxC= 1.00D-01 BMatC= 1.87D-05 BMatP= 1.37D-03
 IDIUse=3 WtCom= 9.94D-01 WtEn= 6.20D-03
 Coeff-Com: -0.578D-01 0.106D+01
 Coeff-En:   0.000D+00 0.100D+01
 Coeff:     -0.575D-01 0.106D+01
 Gap=     0.339 Goal=   None    Shift=    0.000
 RMSDP=3.21D-04 MaxDP=2.70D-03 DE=-2.32D-03 OVMax= 5.17D-03

 Cycle   3  Pass 0  IDiag  1:
 E= -115.716912639014     Delta-E=       -0.000024362834 Rises=F Damp=F
 DIIS: error= 4.93D-04 at cycle   3 NSaved=   3.
 NSaved= 3 IEnMin= 3 EnMin= -115.716912639014     IErMin= 3 ErrMin= 4.93D-04
 ErrMax= 4.93D-04  0.00D+00 EMaxC= 1.00D-01 BMatC= 1.75D-05 BMatP= 1.87D-05
 IDIUse=3 WtCom= 9.95D-01 WtEn= 4.93D-03
 Coeff-Com: -0.433D-01 0.561D+00 0.483D+00
 Coeff-En:   0.000D+00 0.000D+00 0.100D+01
 Coeff:     -0.431D-01 0.558D+00 0.485D+00
 Gap=     0.338 Goal=   None    Shift=    0.000
 RMSDP=9.10D-05 MaxDP=1.02D-03 DE=-2.44D-05 OVMax= 9.84D-04

 Cycle   4  Pass 0  IDiag  1:
 E= -115.716924747761     Delta-E=       -0.000012108747 Rises=F Damp=F
 DIIS: error= 9.62D-05 at cycle   4 NSaved=   4.
 NSaved= 4 IEnMin= 4 EnMin= -115.716924747761     IErMin= 4 ErrMin= 9.62D-05
 ErrMax= 9.62D-05  0.00D+00 EMaxC= 1.00D-01 BMatC= 7.96D-07 BMatP= 1.75D-05
 IDIUse=1 WtCom= 1.00D+00 WtEn= 0.00D+00
 Coeff-Com: -0.124D-01 0.110D+00 0.202D+00 0.701D+00
 Coeff:     -0.124D-01 0.110D+00 0.202D+00 0.701D+00
 Gap=     0.338 Goal=   None    Shift=    0.000
 RMSDP=2.25D-05 MaxDP=1.97D-04 DE=-1.21D-05 OVMax= 2.96D-04

 Cycle   5  Pass 0  IDiag  1:
 E= -115.716925362052     Delta-E=       -0.000000614291 Rises=F Damp=F
 DIIS: error= 2.15D-05 at cycle   5 NSaved=   5.
 NSaved= 5 IEnMin= 5 EnMin= -115.716925362052     IErMin= 5 ErrMin= 2.15D-05
 ErrMax= 2.15D-05  0.00D+00 EMaxC= 1.00D-01 BMatC= 2.94D-08 BMatP= 7.96D-07
 IDIUse=1 WtCom= 1.00D+00 WtEn= 0.00D+00
 Coeff-Com:  0.490D-03-0.151D-01 0.109D-01 0.179D+00 0.825D+00
 Coeff:      0.490D-03-0.151D-01 0.109D-01 0.179D+00 0.825D+00
 Gap=     0.338 Goal=   None    Shift=    0.000
 RMSDP=7.29D-06 MaxDP=6.33D-05 DE=-6.14D-07 OVMax= 9.56D-05

 Initial convergence to 1.0D-05 achieved.  Increase integral accuracy.
 Cycle   6  Pass 1  IDiag  1:
 E= -115.716925489796     Delta-E=       -0.000000127744 Rises=F Damp=F
 DIIS: error= 1.38D-05 at cycle   1 NSaved=   1.
 NSaved= 1 IEnMin= 1 EnMin= -115.716925489796     IErMin= 1 ErrMin= 1.38D-05
 ErrMax= 1.38D-05  0.00D+00 EMaxC= 1.00D-01 BMatC= 7.80D-09 BMatP= 7.80D-09
 IDIUse=1 WtCom= 1.00D+00 WtEn= 0.00D+00
 Coeff-Com:  0.100D+01
 Coeff:      0.100D+01
 Gap=     0.338 Goal=   None    Shift=    0.000
 RMSDP=7.29D-06 MaxDP=6.33D-05 DE=-1.28D-07 OVMax= 5.42D-05

 Cycle   7  Pass 1  IDiag  1:
 E= -115.716925487570     Delta-E=        0.000000002226 Rises=F Damp=F
 DIIS: error= 1.63D-05 at cycle   2 NSaved=   2.
 NSaved= 2 IEnMin= 1 EnMin= -115.716925489796     IErMin= 1 ErrMin= 1.38D-05
 ErrMax= 1.63D-05  0.00D+00 EMaxC= 1.00D-01 BMatC= 1.03D-08 BMatP= 7.80D-09
 IDIUse=1 WtCom= 1.00D+00 WtEn= 0.00D+00
 Coeff-Com:  0.535D+00 0.465D+00
 Coeff:      0.535D+00 0.465D+00
 Gap=     0.338 Goal=   None    Shift=    0.000
 RMSDP=2.11D-06 MaxDP=2.54D-05 DE= 2.23D-09 OVMax= 2.82D-05

 Cycle   8  Pass 1  IDiag  1:
 E= -115.716925497454     Delta-E=       -0.000000009883 Rises=F Damp=F
 DIIS: error= 6.76D-07 at cycle   3 NSaved=   3.
 NSaved= 3 IEnMin= 3 EnMin= -115.716925497454     IErMin= 3 ErrMin= 6.76D-07
 ErrMax= 6.76D-07  0.00D+00 EMaxC= 1.00D-01 BMatC= 3.87D-11 BMatP= 7.80D-09
 IDIUse=1 WtCom= 1.00D+00 WtEn= 0.00D+00
 Coeff-Com:  0.240D+00 0.213D+00 0.547D+00
 Coeff:      0.240D+00 0.213D+00 0.547D+00
 Gap=     0.338 Goal=   None    Shift=    0.000
 RMSDP=1.57D-07 MaxDP=1.62D-06 DE=-9.88D-09 OVMax= 1.80D-06

 Cycle   9  Pass 1  IDiag  1:
 E= -115.716925497480     Delta-E=       -0.000000000026 Rises=F Damp=F
 DIIS: error= 2.81D-07 at cycle   4 NSaved=   4.
 NSaved= 4 IEnMin= 4 EnMin= -115.716925497480     IErMin= 4 ErrMin= 2.81D-07
 ErrMax= 2.81D-07  0.00D+00 EMaxC= 1.00D-01 BMatC= 4.97D-12 BMatP= 3.87D-11
 IDIUse=1 WtCom= 1.00D+00 WtEn= 0.00D+00
 Coeff-Com:  0.441D-01 0.412D-01 0.270D+00 0.645D+00
 Coeff:      0.441D-01 0.412D-01 0.270D+00 0.645D+00
 Gap=     0.338 Goal=   None    Shift=    0.000
 RMSDP=5.44D-08 MaxDP=5.78D-07 DE=-2.61D-11 OVMax= 6.68D-07

 Cycle  10  Pass 1  IDiag  1:
 E= -115.716925497483     Delta-E=       -0.000000000004 Rises=F Damp=F
 DIIS: error= 3.61D-08 at cycle   5 NSaved=   5.
 NSaved= 5 IEnMin= 5 EnMin= -115.716925497483     IErMin= 5 ErrMin= 3.61D-08
 ErrMax= 3.61D-08  0.00D+00 EMaxC= 1.00D-01 BMatC= 1.19D-13 BMatP= 4.97D-12
 IDIUse=1 WtCom= 1.00D+00 WtEn= 0.00D+00
 Coeff-Com: -0.169D-01-0.148D-01-0.116D-01 0.130D+00 0.913D+00
 Coeff:     -0.169D-01-0.148D-01-0.116D-01 0.130D+00 0.913D+00
 Gap=     0.338 Goal=   None    Shift=    0.000
 RMSDP=2.01D-08 MaxDP=2.19D-07 DE=-3.72D-12 OVMax= 3.22D-07

 Cycle  11  Pass 1  IDiag  1:
 E= -115.716925497484     Delta-E=       -0.000000000000 Rises=F Damp=F
 DIIS: error= 2.31D-09 at cycle   6 NSaved=   6.
 NSaved= 6 IEnMin= 6 EnMin= -115.716925497484     IErMin= 6 ErrMin= 2.31D-09
 ErrMax= 2.31D-09  0.00D+00 EMaxC= 1.00D-01 BMatC= 3.25D-16 BMatP= 1.19D-13
 IDIUse=1 WtCom= 1.00D+00 WtEn= 0.00D+00
 Coeff-Com: -0.209D-02-0.186D-02-0.367D-02 0.674D-02 0.873D-01 0.914D+00
 Coeff:     -0.209D-02-0.186D-02-0.367D-02 0.674D-02 0.873D-01 0.914D+00
 Gap=     0.338 Goal=   None    Shift=    0.000
 RMSDP=9.30D-10 MaxDP=9.37D-09 DE=-2.56D-13 OVMax= 1.35D-08

 SCF Done:  E(RB3LYP) =  -115.716925497     A.U. after   11 cycles
            NFock= 11  Conv=0.93D-09     -V/T= 2.0088
 KE= 1.147032012665D+02 PE=-3.515510556202D+02 EE= 8.091512302401D+01
 Leave Link  502 at Wed Jan 10 16:35:50 2024, MaxMem=  2684354560 cpu:               6.6 elap:               0.8
 (Enter /opt/g16/l108.exe)
 Variable Step   Value    
 -------- ---- -----------
    12       3    3.665191
 Leave Link  108 at Wed Jan 10 16:35:50 2024, MaxMem=  2684354560 cpu:               0.1 elap:               0.0
 (Enter /opt/g16/l202.exe)
 ---------------------------------------------------------------------------------------------------
                            Z-MATRIX (ANGSTROMS AND DEGREES)
   CD    Cent   Atom    N1       Length/X        N2       Alpha/Y        N3        Beta/Z          J
 ---------------------------------------------------------------------------------------------------
      1      1  C 
      2      2  H        1   1.093379(     1)
      3      3  H        1   1.101259(     2)      2  108.060(     6)
      4      4  H        1   1.101259(     3)      2  108.060(     7)      3  117.091(    10)      0
      5      5  O        1   1.418639(     4)      2  106.697(     8)      3 -121.455(    11)      0
      6      6  H        5   0.968723(     5)      1  107.667(     9)      2  210.000(    12)      0
 ---------------------------------------------------------------------------------------------------
                         Z-Matrix orientation:                         
 ---------------------------------------------------------------------
 Center     Atomic      Atomic             Coordinates (Angstroms)
 Number     Number       Type             X           Y           Z
 ---------------------------------------------------------------------
      1          6           0        0.000000    0.000000    0.000000
      2          1           0        0.000000    0.000000    1.093379
      3          1           0        1.047005    0.000000   -0.341396
      4          1           0       -0.476809   -0.932133   -0.341396
      5          8           0       -0.709066    1.159152   -0.407588
      6          1           0       -1.129866    0.962628   -1.257723
 ---------------------------------------------------------------------
                    Distance matrix (angstroms):
                    1          2          3          4          5
     1  C    0.000000
     2  H    1.093379   0.000000
     3  H    1.101259   1.776176   0.000000
     4  H    1.101259   1.776176   1.786304   0.000000
     5  O    1.418639   2.024676   2.105184   2.105184   0.000000
     6  H    1.945538   2.780455   2.550505   2.203692   0.968723
                    6
     6  H    0.000000
 Symmetry turned off by external request.
 Stoichiometry    CH4O
 Framework group  C1[X(CH4O)]
 Deg. of freedom    12
 Full point group                 C1      NOp   1
 Rotational constants (GHZ):         127.2413965          24.7850953          23.8813608
 Leave Link  202 at Wed Jan 10 16:35:50 2024, MaxMem=  2684354560 cpu:               0.0 elap:               0.0
 (Enter /opt/g16/l301.exe)
 Standard basis: 6-31G(d) (6D, 7F)
 Ernie: Thresh=  0.10000D-02 Tol=  0.10000D-05 Strict=F.
    38 basis functions,    72 primitive gaussians,    38 cartesian basis functions
     9 alpha electrons        9 beta electrons
       nuclear repulsion energy        40.2199031232 Hartrees.
 IExCor=  402 DFT=T Ex+Corr=B3LYP ExCW=0 ScaHFX=  0.200000
 ScaDFX=  0.800000  0.720000  1.000000  0.810000 ScalE2=  1.000000  1.000000
 IRadAn=      5 IRanWt=     -1 IRanGd=            0 ICorTp=0 IEmpDi=141
 NAtoms=    6 NActive=    6 NUniq=    6 SFac= 1.00D+00 NAtFMM=   60 NAOKFM=F Big=F
 Integral buffers will be    131072 words long.
 Raffenetti 2 integral format.
 Two-electron integral symmetry is turned off.
 R6Disp:  Grimme-D3(BJ) Dispersion energy=       -0.0031028832 Hartrees.
 Nuclear repulsion after empirical dispersion term =       40.2168002400 Hartrees.
 Leave Link  301 at Wed Jan 10 16:35:50 2024, MaxMem=  2684354560 cpu:               0.3 elap:               0.0
 (Enter /opt/g16/l302.exe)
 NPDir=0 NMtPBC=     1 NCelOv=     1 NCel=       1 NClECP=     1 NCelD=      1
         NCelK=      1 NCelE2=     1 NClLst=     1 CellRange=     0.0.
 One-electron integrals computed using PRISM.
 NBasis=    38 RedAO= T EigKep=  9.78D-03  NBF=    38
 NBsUse=    38 1.00D-06 EigRej= -1.00D+00 NBFU=    38
 Precomputing XC quadrature grid using
 IXCGrd= 4 IRadAn=           5 IRanWt=          -1 IRanGd=           0 AccXCQ= 0.00D+00.
 Generated NRdTot=       0 NPtTot=           0 NUsed=           0 NTot=          32
 NSgBfM=    38    38    38    38    38 MxSgAt=     6 MxSgA2=     6.
 Leave Link  302 at Wed Jan 10 16:35:50 2024, MaxMem=  2684354560 cpu:               1.0 elap:               0.1
 (Enter /opt/g16/l303.exe)
 DipDrv:  MaxL=1.
 Leave Link  303 at Wed Jan 10 16:35:50 2024, MaxMem=  2684354560 cpu:               0.1 elap:               0.0
 (Enter /opt/g16/l401.exe)
 Initial guess from the checkpoint file:  "/home/jh-li/scratch/g16/Gau-71567.chk"
 B after Tr=    -0.000782   -0.000335    0.000289
         Rot=    0.999851    0.007068   -0.015770    0.000188 Ang=   1.98 deg.
 Guess basis will be translated and rotated to current coordinates.
 JPrj=2 DoOrth=T DoCkMO=T.
 Generating alternative initial guess.
 ExpMin= 1.61D-01 ExpMax= 5.48D+03 ExpMxC= 8.25D+02 IAcc=3 IRadAn=         5 AccDes= 0.00D+00
 Harris functional with IExCor=  402 and IRadAn=       5 diagonalized for initial guess.
 HarFok:  IExCor=  402 AccDes= 0.00D+00 IRadAn=         5 IDoV= 1 UseB2=F ITyADJ=14
 ICtDFT=  3500011 ScaDFX=  1.000000  1.000000  1.000000  1.000000
 FoFCou: FMM=F IPFlag=           0 FMFlag=      100000 FMFlg1=           0
         NFxFlg=           0 DoJE=T BraDBF=F KetDBF=T FulRan=T
         wScrn=  0.000000 ICntrl=       500 IOpCl=  0 I1Cent=   200000004 NGrid=           0
         NMat0=    1 NMatS0=      1 NMatT0=    0 NMatD0=    1 NMtDS0=    0 NMtDT0=    0
 Symmetry not used in FoFCou.
 Harris En= -115.746625173394    
 Leave Link  401 at Wed Jan 10 16:35:50 2024, MaxMem=  2684354560 cpu:               2.2 elap:               0.3
 (Enter /opt/g16/l502.exe)
 Keep R1 ints in memory in canonical form, NReq=7188797.
 FoFCou: FMM=F IPFlag=           0 FMFlag=           0 FMFlg1=           0
         NFxFlg=           0 DoJE=F BraDBF=F KetDBF=F FulRan=T
         wScrn=  0.000000 ICntrl=       600 IOpCl=  0 I1Cent=           0 NGrid=           0
         NMat0=    1 NMatS0=    741 NMatT0=    0 NMatD0=    1 NMtDS0=    0 NMtDT0=    0
 Symmetry not used in FoFCou.
 Two-electron integral symmetry not used.
 Closed shell SCF:
 Using DIIS extrapolation, IDIIS=  1040.
 NGot=  2684354560 LenX=  2684075777 LenY=  2684073892
 Requested convergence on RMS density matrix=1.00D-08 within 128 cycles.
 Requested convergence on MAX density matrix=1.00D-06.
 Requested convergence on             energy=1.00D-06.
 No special actions if energy rises.
 Integral accuracy reduced to 1.0D-05 until final iterations.

 Cycle   1  Pass 0  IDiag  1:
 E= -115.713918398639    
 DIIS: error= 6.60D-03 at cycle   1 NSaved=   1.
 NSaved= 1 IEnMin= 1 EnMin= -115.713918398639     IErMin= 1 ErrMin= 6.60D-03
 ErrMax= 6.60D-03  0.00D+00 EMaxC= 1.00D-01 BMatC= 1.38D-03 BMatP= 1.38D-03
 IDIUse=3 WtCom= 9.34D-01 WtEn= 6.60D-02
 Coeff-Com:  0.100D+01
 Coeff-En:   0.100D+01
 Coeff:      0.100D+01
 Gap=     1.495 Goal=   None    Shift=    0.000
 GapD=    1.495 DampG=2.000 DampE=1.000 DampFc=2.0000 IDamp=-1.
 RMSDP=1.81D-03 MaxDP=2.02D-02              OVMax= 2.92D-02

 Cycle   2  Pass 0  IDiag  1:
 E= -115.716265186292     Delta-E=       -0.002346787653 Rises=F Damp=F
 DIIS: error= 6.52D-04 at cycle   2 NSaved=   2.
 NSaved= 2 IEnMin= 2 EnMin= -115.716265186292     IErMin= 2 ErrMin= 6.52D-04
 ErrMax= 6.52D-04  0.00D+00 EMaxC= 1.00D-01 BMatC= 1.99D-05 BMatP= 1.38D-03
 IDIUse=3 WtCom= 9.93D-01 WtEn= 6.52D-03
 Coeff-Com: -0.570D-01 0.106D+01
 Coeff-En:   0.000D+00 0.100D+01
 Coeff:     -0.567D-01 0.106D+01
 Gap=     0.337 Goal=   None    Shift=    0.000
 RMSDP=3.28D-04 MaxDP=2.60D-03 DE=-2.35D-03 OVMax= 5.24D-03

 Cycle   3  Pass 0  IDiag  1:
 E= -115.716290142467     Delta-E=       -0.000024956175 Rises=F Damp=F
 DIIS: error= 5.48D-04 at cycle   3 NSaved=   3.
 NSaved= 3 IEnMin= 3 EnMin= -115.716290142467     IErMin= 3 ErrMin= 5.48D-04
 ErrMax= 5.48D-04  0.00D+00 EMaxC= 1.00D-01 BMatC= 1.89D-05 BMatP= 1.99D-05
 IDIUse=3 WtCom= 9.95D-01 WtEn= 5.48D-03
 Coeff-Com: -0.436D-01 0.560D+00 0.484D+00
 Coeff-En:   0.000D+00 0.000D+00 0.100D+01
 Coeff:     -0.433D-01 0.557D+00 0.487D+00
 Gap=     0.336 Goal=   None    Shift=    0.000
 RMSDP=9.48D-05 MaxDP=1.08D-03 DE=-2.50D-05 OVMax= 1.03D-03

 Cycle   4  Pass 0  IDiag  1:
 E= -115.716303243063     Delta-E=       -0.000013100596 Rises=F Damp=F
 DIIS: error= 9.92D-05 at cycle   4 NSaved=   4.
 NSaved= 4 IEnMin= 4 EnMin= -115.716303243063     IErMin= 4 ErrMin= 9.92D-05
 ErrMax= 9.92D-05  0.00D+00 EMaxC= 1.00D-01 BMatC= 8.62D-07 BMatP= 1.89D-05
 IDIUse=1 WtCom= 1.00D+00 WtEn= 0.00D+00
 Coeff-Com: -0.126D-01 0.112D+00 0.203D+00 0.697D+00
 Coeff:     -0.126D-01 0.112D+00 0.203D+00 0.697D+00
 Gap=     0.336 Goal=   None    Shift=    0.000
 RMSDP=2.37D-05 MaxDP=2.27D-04 DE=-1.31D-05 OVMax= 3.15D-04

 Cycle   5  Pass 0  IDiag  1:
 E= -115.716303911355     Delta-E=       -0.000000668292 Rises=F Damp=F
 DIIS: error= 2.19D-05 at cycle   5 NSaved=   5.
 NSaved= 5 IEnMin= 5 EnMin= -115.716303911355     IErMin= 5 ErrMin= 2.19D-05
 ErrMax= 2.19D-05  0.00D+00 EMaxC= 1.00D-01 BMatC= 3.22D-08 BMatP= 8.62D-07
 IDIUse=1 WtCom= 1.00D+00 WtEn= 0.00D+00
 Coeff-Com:  0.385D-03-0.140D-01 0.120D-01 0.181D+00 0.821D+00
 Coeff:      0.385D-03-0.140D-01 0.120D-01 0.181D+00 0.821D+00
 Gap=     0.336 Goal=   None    Shift=    0.000
 RMSDP=7.60D-06 MaxDP=6.14D-05 DE=-6.68D-07 OVMax= 9.88D-05

 Initial convergence to 1.0D-05 achieved.  Increase integral accuracy.
 Cycle   6  Pass 1  IDiag  1:
 E= -115.716303651892     Delta-E=        0.000000259463 Rises=F Damp=F
 DIIS: error= 1.46D-05 at cycle   1 NSaved=   1.
 NSaved= 1 IEnMin= 1 EnMin= -115.716303651892     IErMin= 1 ErrMin= 1.46D-05
 ErrMax= 1.46D-05  0.00D+00 EMaxC= 1.00D-01 BMatC= 8.57D-09 BMatP= 8.57D-09
 IDIUse=1 WtCom= 1.00D+00 WtEn= 0.00D+00
 Coeff-Com:  0.100D+01
 Coeff:      0.100D+01
 Gap=     0.336 Goal=   None    Shift=    0.000
 RMSDP=7.60D-06 MaxDP=6.14D-05 DE= 2.59D-07 OVMax= 5.72D-05

 Cycle   7  Pass 1  IDiag  1:
 E= -115.716303649498     Delta-E=        0.000000002394 Rises=F Damp=F
 DIIS: error= 1.73D-05 at cycle   2 NSaved=   2.
 NSaved= 2 IEnMin= 1 EnMin= -115.716303651892     IErMin= 1 ErrMin= 1.46D-05
 ErrMax= 1.73D-05  0.00D+00 EMaxC= 1.00D-01 BMatC= 1.13D-08 BMatP= 8.57D-09
 IDIUse=1 WtCom= 1.00D+00 WtEn= 0.00D+00
 Coeff-Com:  0.535D+00 0.465D+00
 Coeff:      0.535D+00 0.465D+00
 Gap=     0.336 Goal=   None    Shift=    0.000
 RMSDP=2.21D-06 MaxDP=2.66D-05 DE= 2.39D-09 OVMax= 2.96D-05

 Cycle   8  Pass 1  IDiag  1:
 E= -115.716303660358     Delta-E=       -0.000000010860 Rises=F Damp=F
 DIIS: error= 7.31D-07 at cycle   3 NSaved=   3.
 NSaved= 3 IEnMin= 3 EnMin= -115.716303660358     IErMin= 3 ErrMin= 7.31D-07
 ErrMax= 7.31D-07  0.00D+00 EMaxC= 1.00D-01 BMatC= 4.48D-11 BMatP= 8.57D-09
 IDIUse=1 WtCom= 1.00D+00 WtEn= 0.00D+00
 Coeff-Com:  0.233D+00 0.208D+00 0.559D+00
 Coeff:      0.233D+00 0.208D+00 0.559D+00
 Gap=     0.336 Goal=   None    Shift=    0.000
 RMSDP=1.74D-07 MaxDP=1.87D-06 DE=-1.09D-08 OVMax= 2.05D-06

 Cycle   9  Pass 1  IDiag  1:
 E= -115.716303660388     Delta-E=       -0.000000000030 Rises=F Damp=F
 DIIS: error= 3.36D-07 at cycle   4 NSaved=   4.
 NSaved= 4 IEnMin= 4 EnMin= -115.716303660388     IErMin= 4 ErrMin= 3.36D-07
 ErrMax= 3.36D-07  0.00D+00 EMaxC= 1.00D-01 BMatC= 6.55D-12 BMatP= 4.48D-11
 IDIUse=1 WtCom= 1.00D+00 WtEn= 0.00D+00
 Coeff-Com:  0.377D-01 0.357D-01 0.279D+00 0.648D+00
 Coeff:      0.377D-01 0.357D-01 0.279D+00 0.648D+00
 Gap=     0.336 Goal=   None    Shift=    0.000
 RMSDP=6.34D-08 MaxDP=7.09D-07 DE=-3.02D-11 OVMax= 7.79D-07

 Cycle  10  Pass 1  IDiag  1:
 E= -115.716303660393     Delta-E=       -0.000000000005 Rises=F Damp=F
 DIIS: error= 4.58D-08 at cycle   5 NSaved=   5.
 NSaved= 5 IEnMin= 5 EnMin= -115.716303660393     IErMin= 5 ErrMin= 4.58D-08
 ErrMax= 4.58D-08  0.00D+00 EMaxC= 1.00D-01 BMatC= 1.71D-13 BMatP= 6.55D-12
 IDIUse=1 WtCom= 1.00D+00 WtEn= 0.00D+00
 Coeff-Com: -0.170D-01-0.148D-01-0.440D-02 0.146D+00 0.890D+00
 Coeff:     -0.170D-01-0.148D-01-0.440D-02 0.146D+00 0.890D+00
 Gap=     0.336 Goal=   None    Shift=    0.000
 RMSDP=2.28D-08 MaxDP=2.26D-07 DE=-4.92D-12 OVMax= 3.57D-07

 Cycle  11  Pass 1  IDiag  1:
 E= -115.716303660394     Delta-E=       -0.000000000000 Rises=F Damp=F
 DIIS: error= 2.74D-09 at cycle   6 NSaved=   6.
 NSaved= 6 IEnMin= 6 EnMin= -115.716303660394     IErMin= 6 ErrMin= 2.74D-09
 ErrMax= 2.74D-09  0.00D+00 EMaxC= 1.00D-01 BMatC= 4.67D-16 BMatP= 1.71D-13
 IDIUse=1 WtCom= 1.00D+00 WtEn= 0.00D+00
 Coeff-Com: -0.206D-02-0.182D-02-0.309D-02 0.717D-02 0.822D-01 0.918D+00
 Coeff:     -0.206D-02-0.182D-02-0.309D-02 0.717D-02 0.822D-01 0.918D+00
 Gap=     0.336 Goal=   None    Shift=    0.000
 RMSDP=1.08D-09 MaxDP=1.06D-08 DE=-2.84D-13 OVMax= 1.56D-08

 SCF Done:  E(RB3LYP) =  -115.716303660     A.U. after   11 cycles
            NFock= 11  Conv=0.11D-08     -V/T= 2.0088
 KE= 1.147044564984D+02 PE=-3.515556570941D+02 EE= 8.091809669534D+01
 Leave Link  502 at Wed Jan 10 16:35:51 2024, MaxMem=  2684354560 cpu:               6.8 elap:               0.9
 (Enter /opt/g16/l108.exe)
 Variable Step   Value    
 -------- ---- -----------
    12       4    3.839724
 Leave Link  108 at Wed Jan 10 16:35:51 2024, MaxMem=  2684354560 cpu:               0.0 elap:               0.0
 (Enter /opt/g16/l202.exe)
 ---------------------------------------------------------------------------------------------------
                            Z-MATRIX (ANGSTROMS AND DEGREES)
   CD    Cent   Atom    N1       Length/X        N2       Alpha/Y        N3        Beta/Z          J
 ---------------------------------------------------------------------------------------------------
      1      1  C 
      2      2  H        1   1.093379(     1)
      3      3  H        1   1.101259(     2)      2  108.060(     6)
      4      4  H        1   1.101259(     3)      2  108.060(     7)      3  117.091(    10)      0
      5      5  O        1   1.418639(     4)      2  106.697(     8)      3 -121.455(    11)      0
      6      6  H        5   0.968723(     5)      1  107.667(     9)      2  220.000(    12)      0
 ---------------------------------------------------------------------------------------------------
                         Z-Matrix orientation:                         
 ---------------------------------------------------------------------
 Center     Atomic      Atomic             Coordinates (Angstroms)
 Number     Number       Type             X           Y           Z
 ---------------------------------------------------------------------
      1          6           0        0.000000    0.000000    0.000000
      2          1           0        0.000000    0.000000    1.093379
      3          1           0        1.047005    0.000000   -0.341396
      4          1           0       -0.476809   -0.932133   -0.341396
      5          8           0       -0.709066    1.159152   -0.407588
      6          1           0       -1.256132    0.916472   -1.169328
 ---------------------------------------------------------------------
                    Distance matrix (angstroms):
                    1          2          3          4          5
     1  C    0.000000
     2  H    1.093379   0.000000
     3  H    1.101259   1.776176   0.000000
     4  H    1.101259   1.776176   1.786304   0.000000
     5  O    1.418639   2.024676   2.105184   2.105184   0.000000
     6  H    1.945538   2.745475   2.613395   2.170289   0.968723
                    6
     6  H    0.000000
 Symmetry turned off by external request.
 Stoichiometry    CH4O
 Framework group  C1[X(CH4O)]
 Deg. of freedom    12
 Full point group                 C1      NOp   1
 Rotational constants (GHZ):         127.2657555          24.7908638          23.8761978
 Leave Link  202 at Wed Jan 10 16:35:51 2024, MaxMem=  2684354560 cpu:               0.0 elap:               0.0
 (Enter /opt/g16/l301.exe)
 Standard basis: 6-31G(d) (6D, 7F)
 Ernie: Thresh=  0.10000D-02 Tol=  0.10000D-05 Strict=F.
    38 basis functions,    72 primitive gaussians,    38 cartesian basis functions
     9 alpha electrons        9 beta electrons
       nuclear repulsion energy        40.2210309526 Hartrees.
 IExCor=  402 DFT=T Ex+Corr=B3LYP ExCW=0 ScaHFX=  0.200000
 ScaDFX=  0.800000  0.720000  1.000000  0.810000 ScalE2=  1.000000  1.000000
 IRadAn=      5 IRanWt=     -1 IRanGd=            0 ICorTp=0 IEmpDi=141
 NAtoms=    6 NActive=    6 NUniq=    6 SFac= 1.00D+00 NAtFMM=   60 NAOKFM=F Big=F
 Integral buffers will be    131072 words long.
 Raffenetti 2 integral format.
 Two-electron integral symmetry is turned off.
 R6Disp:  Grimme-D3(BJ) Dispersion energy=       -0.0031025933 Hartrees.
 Nuclear repulsion after empirical dispersion term =       40.2179283593 Hartrees.
 Leave Link  301 at Wed Jan 10 16:35:51 2024, MaxMem=  2684354560 cpu:               0.3 elap:               0.0
 (Enter /opt/g16/l302.exe)
 NPDir=0 NMtPBC=     1 NCelOv=     1 NCel=       1 NClECP=     1 NCelD=      1
         NCelK=      1 NCelE2=     1 NClLst=     1 CellRange=     0.0.
 One-electron integrals computed using PRISM.
 NBasis=    38 RedAO= T EigKep=  9.76D-03  NBF=    38
 NBsUse=    38 1.00D-06 EigRej= -1.00D+00 NBFU=    38
 Precomputing XC quadrature grid using
 IXCGrd= 4 IRadAn=           5 IRanWt=          -1 IRanGd=           0 AccXCQ= 0.00D+00.
 Generated NRdTot=       0 NPtTot=           0 NUsed=           0 NTot=          32
 NSgBfM=    38    38    38    38    38 MxSgAt=     6 MxSgA2=     6.
 Leave Link  302 at Wed Jan 10 16:35:51 2024, MaxMem=  2684354560 cpu:               0.9 elap:               0.1
 (Enter /opt/g16/l303.exe)
 DipDrv:  MaxL=1.
 Leave Link  303 at Wed Jan 10 16:35:51 2024, MaxMem=  2684354560 cpu:               0.1 elap:               0.0
 (Enter /opt/g16/l401.exe)
 Initial guess from the checkpoint file:  "/home/jh-li/scratch/g16/Gau-71567.chk"
 B after Tr=    -0.000749   -0.000263    0.000386
         Rot=    0.999851    0.006326   -0.016063    0.000619 Ang=   1.98 deg.
 Guess basis will be translated and rotated to current coordinates.
 JPrj=2 DoOrth=T DoCkMO=T.
 Generating alternative initial guess.
 ExpMin= 1.61D-01 ExpMax= 5.48D+03 ExpMxC= 8.25D+02 IAcc=3 IRadAn=         5 AccDes= 0.00D+00
 Harris functional with IExCor=  402 and IRadAn=       5 diagonalized for initial guess.
 HarFok:  IExCor=  402 AccDes= 0.00D+00 IRadAn=         5 IDoV= 1 UseB2=F ITyADJ=14
 ICtDFT=  3500011 ScaDFX=  1.000000  1.000000  1.000000  1.000000
 FoFCou: FMM=F IPFlag=           0 FMFlag=      100000 FMFlg1=           0
         NFxFlg=           0 DoJE=T BraDBF=F KetDBF=T FulRan=T
         wScrn=  0.000000 ICntrl=       500 IOpCl=  0 I1Cent=   200000004 NGrid=           0
         NMat0=    1 NMatS0=      1 NMatT0=    0 NMatD0=    1 NMtDS0=    0 NMtDT0=    0
 Symmetry not used in FoFCou.
 Harris En= -115.746141386796    
 Leave Link  401 at Wed Jan 10 16:35:52 2024, MaxMem=  2684354560 cpu:               2.4 elap:               0.3
 (Enter /opt/g16/l502.exe)
 Keep R1 ints in memory in canonical form, NReq=7188797.
 FoFCou: FMM=F IPFlag=           0 FMFlag=           0 FMFlg1=           0
         NFxFlg=           0 DoJE=F BraDBF=F KetDBF=F FulRan=T
         wScrn=  0.000000 ICntrl=       600 IOpCl=  0 I1Cent=           0 NGrid=           0
         NMat0=    1 NMatS0=    741 NMatT0=    0 NMatD0=    1 NMtDS0=    0 NMtDT0=    0
 Symmetry not used in FoFCou.
 Two-electron integral symmetry not used.
 Closed shell SCF:
 Using DIIS extrapolation, IDIIS=  1040.
 NGot=  2684354560 LenX=  2684075777 LenY=  2684073892
 Requested convergence on RMS density matrix=1.00D-08 within 128 cycles.
 Requested convergence on MAX density matrix=1.00D-06.
 Requested convergence on             energy=1.00D-06.
 No special actions if energy rises.
 Integral accuracy reduced to 1.0D-05 until final iterations.

 Cycle   1  Pass 0  IDiag  1:
 E= -115.713197105806    
 DIIS: error= 6.54D-03 at cycle   1 NSaved=   1.
 NSaved= 1 IEnMin= 1 EnMin= -115.713197105806     IErMin= 1 ErrMin= 6.54D-03
 ErrMax= 6.54D-03  0.00D+00 EMaxC= 1.00D-01 BMatC= 1.40D-03 BMatP= 1.40D-03
 IDIUse=3 WtCom= 9.35D-01 WtEn= 6.54D-02
 Coeff-Com:  0.100D+01
 Coeff-En:   0.100D+01
 Coeff:      0.100D+01
 Gap=     1.494 Goal=   None    Shift=    0.000
 GapD=    1.494 DampG=2.000 DampE=1.000 DampFc=2.0000 IDamp=-1.
 RMSDP=1.84D-03 MaxDP=1.90D-02              OVMax= 2.98D-02

 Cycle   2  Pass 0  IDiag  1:
 E= -115.715573306849     Delta-E=       -0.002376201042 Rises=F Damp=F
 DIIS: error= 6.49D-04 at cycle   2 NSaved=   2.
 NSaved= 2 IEnMin= 2 EnMin= -115.715573306849     IErMin= 2 ErrMin= 6.49D-04
 ErrMax= 6.49D-04  0.00D+00 EMaxC= 1.00D-01 BMatC= 2.10D-05 BMatP= 1.40D-03
 IDIUse=3 WtCom= 9.94D-01 WtEn= 6.49D-03
 Coeff-Com: -0.566D-01 0.106D+01
 Coeff-En:   0.000D+00 0.100D+01
 Coeff:     -0.562D-01 0.106D+01
 Gap=     0.335 Goal=   None    Shift=    0.000
 RMSDP=3.34D-04 MaxDP=2.83D-03 DE=-2.38D-03 OVMax= 5.33D-03

 Cycle   3  Pass 0  IDiag  1:
 E= -115.715599320367     Delta-E=       -0.000026013518 Rises=F Damp=F
 DIIS: error= 5.79D-04 at cycle   3 NSaved=   3.
 NSaved= 3 IEnMin= 3 EnMin= -115.715599320367     IErMin= 3 ErrMin= 5.79D-04
 ErrMax= 5.79D-04  0.00D+00 EMaxC= 1.00D-01 BMatC= 1.98D-05 BMatP= 2.10D-05
 IDIUse=3 WtCom= 9.94D-01 WtEn= 5.79D-03
 Coeff-Com: -0.437D-01 0.556D+00 0.488D+00
 Coeff-En:   0.000D+00 0.000D+00 0.100D+01
 Coeff:     -0.435D-01 0.553D+00 0.491D+00
 Gap=     0.334 Goal=   None    Shift=    0.000
 RMSDP=9.79D-05 MaxDP=1.12D-03 DE=-2.60D-05 OVMax= 1.06D-03

 Cycle   4  Pass 0  IDiag  1:
 E= -115.715613042876     Delta-E=       -0.000013722509 Rises=F Damp=F
 DIIS: error= 1.05D-04 at cycle   4 NSaved=   4.
 NSaved= 4 IEnMin= 4 EnMin= -115.715613042876     IErMin= 4 ErrMin= 1.05D-04
 ErrMax= 1.05D-04  0.00D+00 EMaxC= 1.00D-01 BMatC= 9.56D-07 BMatP= 1.98D-05
 IDIUse=3 WtCom= 9.99D-01 WtEn= 1.05D-03
 Coeff-Com: -0.128D-01 0.114D+00 0.208D+00 0.690D+00
 Coeff-En:   0.000D+00 0.000D+00 0.000D+00 0.100D+01
 Coeff:     -0.128D-01 0.114D+00 0.208D+00 0.691D+00
 Gap=     0.334 Goal=   None    Shift=    0.000
 RMSDP=2.50D-05 MaxDP=2.54D-04 DE=-1.37D-05 OVMax= 3.32D-04

 Cycle   5  Pass 0  IDiag  1:
 E= -115.715613785846     Delta-E=       -0.000000742971 Rises=F Damp=F
 DIIS: error= 2.33D-05 at cycle   5 NSaved=   5.
 NSaved= 5 IEnMin= 5 EnMin= -115.715613785846     IErMin= 5 ErrMin= 2.33D-05
 ErrMax= 2.33D-05  0.00D+00 EMaxC= 1.00D-01 BMatC= 3.42D-08 BMatP= 9.56D-07
 IDIUse=1 WtCom= 1.00D+00 WtEn= 0.00D+00
 Coeff-Com:  0.355D-03-0.135D-01 0.127D-01 0.178D+00 0.822D+00
 Coeff:      0.355D-03-0.135D-01 0.127D-01 0.178D+00 0.822D+00
 Gap=     0.334 Goal=   None    Shift=    0.000
 RMSDP=7.88D-06 MaxDP=6.00D-05 DE=-7.43D-07 OVMax= 1.03D-04

 Initial convergence to 1.0D-05 achieved.  Increase integral accuracy.
 Cycle   6  Pass 1  IDiag  1:
 E= -115.715613226267     Delta-E=        0.000000559579 Rises=F Damp=F
 DIIS: error= 1.53D-05 at cycle   1 NSaved=   1.
 NSaved= 1 IEnMin= 1 EnMin= -115.715613226267     IErMin= 1 ErrMin= 1.53D-05
 ErrMax= 1.53D-05  0.00D+00 EMaxC= 1.00D-01 BMatC= 9.21D-09 BMatP= 9.21D-09
 IDIUse=1 WtCom= 1.00D+00 WtEn= 0.00D+00
 Coeff-Com:  0.100D+01
 Coeff:      0.100D+01
 Gap=     0.334 Goal=   None    Shift=    0.000
 RMSDP=7.88D-06 MaxDP=6.00D-05 DE= 5.60D-07 OVMax= 5.86D-05

 Cycle   7  Pass 1  IDiag  1:
 E= -115.715613223716     Delta-E=        0.000000002551 Rises=F Damp=F
 DIIS: error= 1.78D-05 at cycle   2 NSaved=   2.
 NSaved= 2 IEnMin= 1 EnMin= -115.715613226267     IErMin= 1 ErrMin= 1.53D-05
 ErrMax= 1.78D-05  0.00D+00 EMaxC= 1.00D-01 BMatC= 1.21D-08 BMatP= 9.21D-09
 IDIUse=1 WtCom= 1.00D+00 WtEn= 0.00D+00
 Coeff-Com:  0.534D+00 0.466D+00
 Coeff:      0.534D+00 0.466D+00
 Gap=     0.334 Goal=   None    Shift=    0.000
 RMSDP=2.29D-06 MaxDP=2.75D-05 DE= 2.55D-09 OVMax= 3.04D-05

 Cycle   8  Pass 1  IDiag  1:
 E= -115.715613235337     Delta-E=       -0.000000011621 Rises=F Damp=F
 DIIS: error= 7.42D-07 at cycle   3 NSaved=   3.
 NSaved= 3 IEnMin= 3 EnMin= -115.715613235337     IErMin= 3 ErrMin= 7.42D-07
 ErrMax= 7.42D-07  0.00D+00 EMaxC= 1.00D-01 BMatC= 4.78D-11 BMatP= 9.21D-09
 IDIUse=1 WtCom= 1.00D+00 WtEn= 0.00D+00
 Coeff-Com:  0.230D+00 0.207D+00 0.563D+00
 Coeff:      0.230D+00 0.207D+00 0.563D+00
 Gap=     0.334 Goal=   None    Shift=    0.000
 RMSDP=1.79D-07 MaxDP=1.97D-06 DE=-1.16D-08 OVMax= 2.09D-06

 Cycle   9  Pass 1  IDiag  1:
 E= -115.715613235369     Delta-E=       -0.000000000032 Rises=F Damp=F
 DIIS: error= 3.59D-07 at cycle   4 NSaved=   4.
 NSaved= 4 IEnMin= 4 EnMin= -115.715613235369     IErMin= 4 ErrMin= 3.59D-07
 ErrMax= 3.59D-07  0.00D+00 EMaxC= 1.00D-01 BMatC= 7.08D-12 BMatP= 4.78D-11
 IDIUse=1 WtCom= 1.00D+00 WtEn= 0.00D+00
 Coeff-Com:  0.390D-01 0.377D-01 0.281D+00 0.642D+00
 Coeff:      0.390D-01 0.377D-01 0.281D+00 0.642D+00
 Gap=     0.334 Goal=   None    Shift=    0.000
 RMSDP=6.59D-08 MaxDP=7.69D-07 DE=-3.21D-11 OVMax= 8.08D-07

 Cycle  10  Pass 1  IDiag  1:
 E= -115.715613235374     Delta-E=       -0.000000000005 Rises=F Damp=F
 DIIS: error= 5.21D-08 at cycle   5 NSaved=   5.
 NSaved= 5 IEnMin= 5 EnMin= -115.715613235374     IErMin= 5 ErrMin= 5.21D-08
 ErrMax= 5.21D-08  0.00D+00 EMaxC= 1.00D-01 BMatC= 1.99D-13 BMatP= 7.08D-12
 IDIUse=1 WtCom= 1.00D+00 WtEn= 0.00D+00
 Coeff-Com: -0.158D-01-0.135D-01-0.259D-02 0.151D+00 0.880D+00
 Coeff:     -0.158D-01-0.135D-01-0.259D-02 0.151D+00 0.880D+00
 Gap=     0.334 Goal=   None    Shift=    0.000
 RMSDP=2.27D-08 MaxDP=1.95D-07 DE=-5.31D-12 OVMax= 3.52D-07

 Cycle  11  Pass 1  IDiag  1:
 E= -115.715613235374     Delta-E=       -0.000000000000 Rises=F Damp=F
 DIIS: error= 3.59D-09 at cycle   6 NSaved=   6.
 NSaved= 6 IEnMin= 6 EnMin= -115.715613235374     IErMin= 6 ErrMin= 3.59D-09
 ErrMax= 3.59D-09  0.00D+00 EMaxC= 1.00D-01 BMatC= 6.47D-16 BMatP= 1.99D-13
 IDIUse=1 WtCom= 1.00D+00 WtEn= 0.00D+00
 Coeff-Com: -0.212D-02-0.188D-02-0.298D-02 0.633D-02 0.782D-01 0.922D+00
 Coeff:     -0.212D-02-0.188D-02-0.298D-02 0.633D-02 0.782D-01 0.922D+00
 Gap=     0.334 Goal=   None    Shift=    0.000
 RMSDP=1.37D-09 MaxDP=1.34D-08 DE=-2.84D-13 OVMax= 2.01D-08

 SCF Done:  E(RB3LYP) =  -115.715613235     A.U. after   11 cycles
            NFock= 11  Conv=0.14D-08     -V/T= 2.0088
 KE= 1.147057662892D+02 PE=-3.515608685986D+02 EE= 8.092156071471D+01
 Leave Link  502 at Wed Jan 10 16:35:52 2024, MaxMem=  2684354560 cpu:               6.8 elap:               0.9
 (Enter /opt/g16/l108.exe)
 Variable Step   Value    
 -------- ---- -----------
    12       5    4.014257
 Leave Link  108 at Wed Jan 10 16:35:52 2024, MaxMem=  2684354560 cpu:               0.0 elap:               0.0
 (Enter /opt/g16/l202.exe)
 ---------------------------------------------------------------------------------------------------
                            Z-MATRIX (ANGSTROMS AND DEGREES)
   CD    Cent   Atom    N1       Length/X        N2       Alpha/Y        N3        Beta/Z          J
 ---------------------------------------------------------------------------------------------------
      1      1  C 
      2      2  H        1   1.093379(     1)
      3      3  H        1   1.101259(     2)      2  108.060(     6)
      4      4  H        1   1.101259(     3)      2  108.060(     7)      3  117.091(    10)      0
      5      5  O        1   1.418639(     4)      2  106.697(     8)      3 -121.455(    11)      0
      6      6  H        5   0.968723(     5)      1  107.667(     9)      2  230.000(    12)      0
 ---------------------------------------------------------------------------------------------------
                         Z-Matrix orientation:                         
 ---------------------------------------------------------------------
 Center     Atomic      Atomic             Coordinates (Angstroms)
 Number     Number       Type             X           Y           Z
 ---------------------------------------------------------------------
      1          6           0        0.000000    0.000000    0.000000
      2          1           0        0.000000    0.000000    1.093379
      3          1           0        1.047005    0.000000   -0.341396
      4          1           0       -0.476809   -0.932133   -0.341396
      5          8           0       -0.709066    1.159152   -0.407588
      6          1           0       -1.370241    0.884988   -1.060355
 ---------------------------------------------------------------------
                    Distance matrix (angstroms):
                    1          2          3          4          5
     1  C    0.000000
     2  H    1.093379   0.000000
     3  H    1.101259   1.776176   0.000000
     4  H    1.101259   1.776176   1.786304   0.000000
     5  O    1.418639   2.024676   2.105184   2.105184   0.000000
     6  H    1.945538   2.701728   2.672674   2.148733   0.968723
                    6
     6  H    0.000000
 Symmetry turned off by external request.
 Stoichiometry    CH4O
 Framework group  C1[X(CH4O)]
 Deg. of freedom    12
 Full point group                 C1      NOp   1
 Rotational constants (GHZ):         127.2957147          24.7968783          23.8708588
 Leave Link  202 at Wed Jan 10 16:35:52 2024, MaxMem=  2684354560 cpu:               0.1 elap:               0.0
 (Enter /opt/g16/l301.exe)
 Standard basis: 6-31G(d) (6D, 7F)
 Ernie: Thresh=  0.10000D-02 Tol=  0.10000D-05 Strict=F.
    38 basis functions,    72 primitive gaussians,    38 cartesian basis functions
     9 alpha electrons        9 beta electrons
       nuclear repulsion energy        40.2221070233 Hartrees.
 IExCor=  402 DFT=T Ex+Corr=B3LYP ExCW=0 ScaHFX=  0.200000
 ScaDFX=  0.800000  0.720000  1.000000  0.810000 ScalE2=  1.000000  1.000000
 IRadAn=      5 IRanWt=     -1 IRanGd=            0 ICorTp=0 IEmpDi=141
 NAtoms=    6 NActive=    6 NUniq=    6 SFac= 1.00D+00 NAtFMM=   60 NAOKFM=F Big=F
 Integral buffers will be    131072 words long.
 Raffenetti 2 integral format.
 Two-electron integral symmetry is turned off.
 R6Disp:  Grimme-D3(BJ) Dispersion energy=       -0.0031024281 Hartrees.
 Nuclear repulsion after empirical dispersion term =       40.2190045952 Hartrees.
[...]
 Coeff:     -0.123D-01 0.107D+00 0.204D+00 0.701D+00
 Gap=     0.329 Goal=   None    Shift=    0.000
 RMSDP=2.53D-05 MaxDP=2.45D-04 DE=-1.39D-05 OVMax= 3.38D-04

 Cycle   5  Pass 0  IDiag  1:
 E= -115.713574467011     Delta-E=       -0.000000740691 Rises=F Damp=F
 DIIS: error= 2.17D-05 at cycle   5 NSaved=   5.
 NSaved= 5 IEnMin= 5 EnMin= -115.713574467011     IErMin= 5 ErrMin= 2.17D-05
 ErrMax= 2.17D-05  0.00D+00 EMaxC= 1.00D-01 BMatC= 3.45D-08 BMatP= 9.48D-07
 IDIUse=1 WtCom= 1.00D+00 WtEn= 0.00D+00
 Coeff-Com:  0.555D-03-0.156D-01 0.125D-01 0.182D+00 0.821D+00
 Coeff:      0.555D-03-0.156D-01 0.125D-01 0.182D+00 0.821D+00
 Gap=     0.329 Goal=   None    Shift=    0.000
 RMSDP=8.09D-06 MaxDP=7.08D-05 DE=-7.41D-07 OVMax= 1.07D-04

 Initial convergence to 1.0D-05 achieved.  Increase integral accuracy.
 Cycle   6  Pass 1  IDiag  1:
 E= -115.713574599115     Delta-E=       -0.000000132105 Rises=F Damp=F
 DIIS: error= 1.53D-05 at cycle   1 NSaved=   1.
 NSaved= 1 IEnMin= 1 EnMin= -115.713574599115     IErMin= 1 ErrMin= 1.53D-05
 ErrMax= 1.53D-05  0.00D+00 EMaxC= 1.00D-01 BMatC= 9.20D-09 BMatP= 9.20D-09
 IDIUse=1 WtCom= 1.00D+00 WtEn= 0.00D+00
 Coeff-Com:  0.100D+01
 Coeff:      0.100D+01
 Gap=     0.329 Goal=   None    Shift=    0.000
 RMSDP=8.09D-06 MaxDP=7.08D-05 DE=-1.32D-07 OVMax= 5.67D-05

 Cycle   7  Pass 1  IDiag  1:
 E= -115.713574596388     Delta-E=        0.000000002727 Rises=F Damp=F
 DIIS: error= 1.74D-05 at cycle   2 NSaved=   2.
 NSaved= 2 IEnMin= 1 EnMin= -115.713574599115     IErMin= 1 ErrMin= 1.53D-05
 ErrMax= 1.74D-05  0.00D+00 EMaxC= 1.00D-01 BMatC= 1.22D-08 BMatP= 9.20D-09
 IDIUse=1 WtCom= 1.00D+00 WtEn= 0.00D+00
 Coeff-Com:  0.535D+00 0.465D+00
 Coeff:      0.535D+00 0.465D+00
 Gap=     0.329 Goal=   None    Shift=    0.000
 RMSDP=2.30D-06 MaxDP=2.83D-05 DE= 2.73D-09 OVMax= 3.01D-05

 Cycle   8  Pass 1  IDiag  1:
 E= -115.713574608098     Delta-E=       -0.000000011710 Rises=F Damp=F
 DIIS: error= 9.63D-07 at cycle   3 NSaved=   3.
 NSaved= 3 IEnMin= 3 EnMin= -115.713574608098     IErMin= 3 ErrMin= 9.63D-07
 ErrMax= 9.63D-07  0.00D+00 EMaxC= 1.00D-01 BMatC= 4.79D-11 BMatP= 9.20D-09
 IDIUse=1 WtCom= 1.00D+00 WtEn= 0.00D+00
 Coeff-Com:  0.232D+00 0.208D+00 0.560D+00
 Coeff:      0.232D+00 0.208D+00 0.560D+00
 Gap=     0.329 Goal=   None    Shift=    0.000
 RMSDP=1.77D-07 MaxDP=1.98D-06 DE=-1.17D-08 OVMax= 2.02D-06

 Cycle   9  Pass 1  IDiag  1:
 E= -115.713574608129     Delta-E=       -0.000000000032 Rises=F Damp=F
 DIIS: error= 3.36D-07 at cycle   4 NSaved=   4.
 NSaved= 4 IEnMin= 4 EnMin= -115.713574608129     IErMin= 4 ErrMin= 3.36D-07
 ErrMax= 3.36D-07  0.00D+00 EMaxC= 1.00D-01 BMatC= 6.82D-12 BMatP= 4.79D-11
 IDIUse=1 WtCom= 1.00D+00 WtEn= 0.00D+00
 Coeff-Com:  0.335D-01 0.335D-01 0.278D+00 0.655D+00
 Coeff:      0.335D-01 0.335D-01 0.278D+00 0.655D+00
 Gap=     0.329 Goal=   None    Shift=    0.000
 RMSDP=6.62D-08 MaxDP=6.75D-07 DE=-3.18D-11 OVMax= 8.42D-07

 Cycle  10  Pass 1  IDiag  1:
 E= -115.713574608135     Delta-E=       -0.000000000005 Rises=F Damp=F
 DIIS: error= 4.76D-08 at cycle   5 NSaved=   5.
 NSaved= 5 IEnMin= 5 EnMin= -115.713574608135     IErMin= 5 ErrMin= 4.76D-08
 ErrMax= 4.76D-08  0.00D+00 EMaxC= 1.00D-01 BMatC= 1.58D-13 BMatP= 6.82D-12
 IDIUse=1 WtCom= 1.00D+00 WtEn= 0.00D+00
 Coeff-Com: -0.154D-01-0.128D-01 0.190D-02 0.145D+00 0.881D+00
 Coeff:     -0.154D-01-0.128D-01 0.190D-02 0.145D+00 0.881D+00
 Gap=     0.329 Goal=   None    Shift=    0.000
 RMSDP=2.15D-08 MaxDP=2.10D-07 DE=-5.09D-12 OVMax= 3.29D-07

 Cycle  11  Pass 1  IDiag  1:
 E= -115.713574608135     Delta-E=       -0.000000000000 Rises=F Damp=F
 DIIS: error= 4.22D-09 at cycle   6 NSaved=   6.
 NSaved= 6 IEnMin= 6 EnMin= -115.713574608135     IErMin= 6 ErrMin= 4.22D-09
 ErrMax= 4.22D-09  0.00D+00 EMaxC= 1.00D-01 BMatC= 6.96D-16 BMatP= 1.58D-13
 IDIUse=1 WtCom= 1.00D+00 WtEn= 0.00D+00
 Coeff-Com: -0.172D-02-0.157D-02-0.418D-02 0.141D-02 0.733D-01 0.933D+00
 Coeff:     -0.172D-02-0.157D-02-0.418D-02 0.141D-02 0.733D-01 0.933D+00
 Gap=     0.329 Goal=   None    Shift=    0.000
 RMSDP=1.32D-09 MaxDP=1.27D-08 DE=-3.13D-13 OVMax= 2.01D-08

 SCF Done:  E(RB3LYP) =  -115.713574608     A.U. after   11 cycles
            NFock= 11  Conv=0.13D-08     -V/T= 2.0088
 KE= 1.147033939192D+02 PE=-3.515775537815D+02 EE= 8.093101449741D+01
 Leave Link  502 at Wed Jan 10 16:36:11 2024, MaxMem=  2684354560 cpu:               6.7 elap:               0.9
 (Enter /opt/g16/l108.exe)
 Variable Step   Value    
 -------- ---- -----------
    12      18    6.283185
 Leave Link  108 at Wed Jan 10 16:36:11 2024, MaxMem=  2684354560 cpu:               0.1 elap:               0.0
 (Enter /opt/g16/l202.exe)
 ---------------------------------------------------------------------------------------------------
                            Z-MATRIX (ANGSTROMS AND DEGREES)
   CD    Cent   Atom    N1       Length/X        N2       Alpha/Y        N3        Beta/Z          J
 ---------------------------------------------------------------------------------------------------
      1      1  C 
      2      2  H        1   1.093379(     1)
      3      3  H        1   1.101259(     2)      2  108.060(     6)
      4      4  H        1   1.101259(     3)      2  108.060(     7)      3  117.091(    10)      0
      5      5  O        1   1.418639(     4)      2  106.697(     8)      3 -121.455(    11)      0
      6      6  H        5   0.968723(     5)      1  107.667(     9)      2  360.000(    12)      0
 ---------------------------------------------------------------------------------------------------
                         Z-Matrix orientation:                         
 ---------------------------------------------------------------------
 Center     Atomic      Atomic             Coordinates (Angstroms)
 Number     Number       Type             X           Y           Z
 ---------------------------------------------------------------------
      1          6           0        0.000000    0.000000    0.000000
      2          1           0        0.000000    0.000000    1.093379
      3          1           0        1.047005    0.000000   -0.341396
      4          1           0       -0.476809   -0.932133   -0.341396
      5          8           0       -0.709066    1.159152   -0.407588
      6          1           0       -0.994398    1.625601    0.392058
 ---------------------------------------------------------------------
                    Distance matrix (angstroms):
                    1          2          3          4          5
     1  C    0.000000
     2  H    1.093379   0.000000
     3  H    1.101259   1.776176   0.000000
     4  H    1.101259   1.776176   1.786304   0.000000
     5  O    1.418639   2.024676   2.105184   2.105184   0.000000
     6  H    1.945538   2.030581   2.710694   2.710694   0.968723
                    6
     6  H    0.000000
 Symmetry turned off by external request.
 Stoichiometry    CH4O
 Framework group  CS[SG(CH2O),X(H2)]
 Deg. of freedom     8
 Full point group                 CS      NOp   2
 Rotational constants (GHZ):         127.6874783          24.7692527          23.8999961
 Leave Link  202 at Wed Jan 10 16:36:11 2024, MaxMem=  2684354560 cpu:               0.0 elap:               0.0
 (Enter /opt/g16/l301.exe)
 Standard basis: 6-31G(d) (6D, 7F)
 Ernie: Thresh=  0.10000D-02 Tol=  0.10000D-05 Strict=F.
    38 basis functions,    72 primitive gaussians,    38 cartesian basis functions
     9 alpha electrons        9 beta electrons
       nuclear repulsion energy        40.2330118470 Hartrees.
 IExCor=  402 DFT=T Ex+Corr=B3LYP ExCW=0 ScaHFX=  0.200000
 ScaDFX=  0.800000  0.720000  1.000000  0.810000 ScalE2=  1.000000  1.000000
 IRadAn=      5 IRanWt=     -1 IRanGd=            0 ICorTp=0 IEmpDi=141
 NAtoms=    6 NActive=    6 NUniq=    6 SFac= 1.00D+00 NAtFMM=   60 NAOKFM=F Big=F
 Integral buffers will be    131072 words long.
 Raffenetti 2 integral format.
 Two-electron integral symmetry is turned off.
 R6Disp:  Grimme-D3(BJ) Dispersion energy=       -0.0031024045 Hartrees.
 Nuclear repulsion after empirical dispersion term =       40.2299094425 Hartrees.
 Leave Link  301 at Wed Jan 10 16:36:11 2024, MaxMem=  2684354560 cpu:               0.3 elap:               0.0
 (Enter /opt/g16/l302.exe)
 NPDir=0 NMtPBC=     1 NCelOv=     1 NCel=       1 NClECP=     1 NCelD=      1
         NCelK=      1 NCelE2=     1 NClLst=     1 CellRange=     0.0.
 One-electron integrals computed using PRISM.
 NBasis=    38 RedAO= T EigKep=  9.62D-03  NBF=    38
 NBsUse=    38 1.00D-06 EigRej= -1.00D+00 NBFU=    38
 Precomputing XC quadrature grid using
 IXCGrd= 4 IRadAn=           5 IRanWt=          -1 IRanGd=           0 AccXCQ= 0.00D+00.
 Generated NRdTot=       0 NPtTot=           0 NUsed=           0 NTot=          32
 NSgBfM=    38    38    38    38    38 MxSgAt=     6 MxSgA2=     6.
 Leave Link  302 at Wed Jan 10 16:36:11 2024, MaxMem=  2684354560 cpu:               1.0 elap:               0.1
 (Enter /opt/g16/l303.exe)
 DipDrv:  MaxL=1.
 Leave Link  303 at Wed Jan 10 16:36:12 2024, MaxMem=  2684354560 cpu:               0.1 elap:               0.0
 (Enter /opt/g16/l401.exe)
 Initial guess from the checkpoint file:  "/home/jh-li/scratch/g16/Gau-71567.chk"
 B after Tr=     0.000464    0.000308    0.000049
         Rot=    0.999854    0.006990   -0.012298    0.009616 Ang=   1.96 deg.
 Guess basis will be translated and rotated to current coordinates.
 JPrj=2 DoOrth=T DoCkMO=T.
 Generating alternative initial guess.
 ExpMin= 1.61D-01 ExpMax= 5.48D+03 ExpMxC= 8.25D+02 IAcc=3 IRadAn=         5 AccDes= 0.00D+00
 Harris functional with IExCor=  402 and IRadAn=       5 diagonalized for initial guess.
 HarFok:  IExCor=  402 AccDes= 0.00D+00 IRadAn=         5 IDoV= 1 UseB2=F ITyADJ=14
 ICtDFT=  3500011 ScaDFX=  1.000000  1.000000  1.000000  1.000000
 FoFCou: FMM=F IPFlag=           0 FMFlag=      100000 FMFlg1=           0
         NFxFlg=           0 DoJE=T BraDBF=F KetDBF=T FulRan=T
         wScrn=  0.000000 ICntrl=       500 IOpCl=  0 I1Cent=   200000004 NGrid=           0
         NMat0=    1 NMatS0=      1 NMatT0=    0 NMatD0=    1 NMtDS0=    0 NMtDT0=    0
 Symmetry not used in FoFCou.
 Harris En= -115.744513388343    
 Leave Link  401 at Wed Jan 10 16:36:12 2024, MaxMem=  2684354560 cpu:               2.4 elap:               0.3
 (Enter /opt/g16/l502.exe)
 Keep R1 ints in memory in canonical form, NReq=7188797.
 FoFCou: FMM=F IPFlag=           0 FMFlag=           0 FMFlg1=           0
         NFxFlg=           0 DoJE=F BraDBF=F KetDBF=F FulRan=T
         wScrn=  0.000000 ICntrl=       600 IOpCl=  0 I1Cent=           0 NGrid=           0
         NMat0=    1 NMatS0=    741 NMatT0=    0 NMatD0=    1 NMtDS0=    0 NMtDT0=    0
 Symmetry not used in FoFCou.
 Two-electron integral symmetry not used.
 Closed shell SCF:
 Using DIIS extrapolation, IDIIS=  1040.
 NGot=  2684354560 LenX=  2684075777 LenY=  2684073892
 Requested convergence on RMS density matrix=1.00D-08 within 128 cycles.
 Requested convergence on MAX density matrix=1.00D-06.
 Requested convergence on             energy=1.00D-06.
 No special actions if energy rises.
 Integral accuracy reduced to 1.0D-05 until final iterations.

 Cycle   1  Pass 0  IDiag  1:
 E= -115.710988893820    
 DIIS: error= 7.25D-03 at cycle   1 NSaved=   1.
 NSaved= 1 IEnMin= 1 EnMin= -115.710988893820     IErMin= 1 ErrMin= 7.25D-03
 ErrMax= 7.25D-03  0.00D+00 EMaxC= 1.00D-01 BMatC= 1.42D-03 BMatP= 1.42D-03
 IDIUse=3 WtCom= 9.28D-01 WtEn= 7.25D-02
 Coeff-Com:  0.100D+01
 Coeff-En:   0.100D+01
 Coeff:      0.100D+01
 Gap=     1.483 Goal=   None    Shift=    0.000
 GapD=    1.483 DampG=2.000 DampE=1.000 DampFc=2.0000 IDamp=-1.
 RMSDP=1.91D-03 MaxDP=2.10D-02              OVMax= 3.10D-02

 Cycle   2  Pass 0  IDiag  1:
 E= -115.713419378189     Delta-E=       -0.002430484369 Rises=F Damp=F
 DIIS: error= 6.77D-04 at cycle   2 NSaved=   2.
 NSaved= 2 IEnMin= 2 EnMin= -115.713419378189     IErMin= 2 ErrMin= 6.77D-04
 ErrMax= 6.77D-04  0.00D+00 EMaxC= 1.00D-01 BMatC= 2.14D-05 BMatP= 1.42D-03
 IDIUse=3 WtCom= 9.93D-01 WtEn= 6.77D-03
 Coeff-Com: -0.598D-01 0.106D+01
 Coeff-En:   0.000D+00 0.100D+01
 Coeff:     -0.594D-01 0.106D+01
 Gap=     0.329 Goal=   None    Shift=    0.000
 RMSDP=3.38D-04 MaxDP=3.09D-03 DE=-2.43D-03 OVMax= 5.48D-03

 Cycle   3  Pass 0  IDiag  1:
 E= -115.713447732626     Delta-E=       -0.000028354438 Rises=F Damp=F
 DIIS: error= 5.03D-04 at cycle   3 NSaved=   3.
 NSaved= 3 IEnMin= 3 EnMin= -115.713447732626     IErMin= 3 ErrMin= 5.03D-04
 ErrMax= 5.03D-04  0.00D+00 EMaxC= 1.00D-01 BMatC= 1.86D-05 BMatP= 2.14D-05
 IDIUse=3 WtCom= 9.95D-01 WtEn= 5.03D-03
 Coeff-Com: -0.439D-01 0.549D+00 0.495D+00
 Coeff-En:   0.000D+00 0.000D+00 0.100D+01
 Coeff:     -0.437D-01 0.546D+00 0.497D+00
 Gap=     0.328 Goal=   None    Shift=    0.000
 RMSDP=9.75D-05 MaxDP=1.08D-03 DE=-2.84D-05 OVMax= 1.05D-03

 Cycle   4  Pass 0  IDiag  1:
 E= -115.713460622651     Delta-E=       -0.000012890024 Rises=F Damp=F
 DIIS: error= 1.37D-04 at cycle   4 NSaved=   4.
 NSaved= 4 IEnMin= 4 EnMin= -115.713460622651     IErMin= 4 ErrMin= 1.37D-04
 ErrMax= 1.37D-04  0.00D+00 EMaxC= 1.00D-01 BMatC= 1.04D-06 BMatP= 1.86D-05
 IDIUse=3 WtCom= 9.99D-01 WtEn= 1.37D-03
 Coeff-Com: -0.124D-01 0.108D+00 0.216D+00 0.688D+00
 Coeff-En:   0.000D+00 0.000D+00 0.000D+00 0.100D+01
 Coeff:     -0.124D-01 0.108D+00 0.216D+00 0.688D+00
 Gap=     0.328 Goal=   None    Shift=    0.000
 RMSDP=2.58D-05 MaxDP=2.41D-04 DE=-1.29D-05 OVMax= 3.39D-04

 Cycle   5  Pass 0  IDiag  1:
 E= -115.713461428906     Delta-E=       -0.000000806256 Rises=F Damp=F
 DIIS: error= 2.11D-05 at cycle   5 NSaved=   5.
 NSaved= 5 IEnMin= 5 EnMin= -115.713461428906     IErMin= 5 ErrMin= 2.11D-05
 ErrMax= 2.11D-05  0.00D+00 EMaxC= 1.00D-01 BMatC= 3.07D-08 BMatP= 1.04D-06
 IDIUse=1 WtCom= 1.00D+00 WtEn= 0.00D+00
 Coeff-Com:  0.763D-03-0.172D-01 0.108D-01 0.164D+00 0.841D+00
 Coeff:      0.763D-03-0.172D-01 0.108D-01 0.164D+00 0.841D+00
 Gap=     0.328 Goal=   None    Shift=    0.000
 RMSDP=8.01D-06 MaxDP=7.52D-05 DE=-8.06D-07 OVMax= 1.09D-04

 Initial convergence to 1.0D-05 achieved.  Increase integral accuracy.
 Cycle   6  Pass 1  IDiag  1:
 E= -115.713463302214     Delta-E=       -0.000001873308 Rises=F Damp=F
 DIIS: error= 1.49D-05 at cycle   1 NSaved=   1.
 NSaved= 1 IEnMin= 1 EnMin= -115.713463302214     IErMin= 1 ErrMin= 1.49D-05
 ErrMax= 1.49D-05  0.00D+00 EMaxC= 1.00D-01 BMatC= 8.42D-09 BMatP= 8.42D-09
 IDIUse=1 WtCom= 1.00D+00 WtEn= 0.00D+00
 Coeff-Com:  0.100D+01
 Coeff:      0.100D+01
 Gap=     0.328 Goal=   None    Shift=    0.000
 RMSDP=8.01D-06 MaxDP=7.52D-05 DE=-1.87D-06 OVMax= 5.19D-05

 Cycle   7  Pass 1  IDiag  1:
 E= -115.713463299749     Delta-E=        0.000000002466 Rises=F Damp=F
 DIIS: error= 1.69D-05 at cycle   2 NSaved=   2.
 NSaved= 2 IEnMin= 1 EnMin= -115.713463302214     IErMin= 1 ErrMin= 1.49D-05
 ErrMax= 1.69D-05  0.00D+00 EMaxC= 1.00D-01 BMatC= 1.11D-08 BMatP= 8.42D-09
 IDIUse=1 WtCom= 1.00D+00 WtEn= 0.00D+00
 Coeff-Com:  0.535D+00 0.465D+00
 Coeff:      0.535D+00 0.465D+00
 Gap=     0.328 Goal=   None    Shift=    0.000
 RMSDP=2.20D-06 MaxDP=2.72D-05 DE= 2.47D-09 OVMax= 2.83D-05

 Cycle   8  Pass 1  IDiag  1:
 E= -115.713463310448     Delta-E=       -0.000000010700 Rises=F Damp=F
 DIIS: error= 7.88D-07 at cycle   3 NSaved=   3.
 NSaved= 3 IEnMin= 3 EnMin= -115.713463310448     IErMin= 3 ErrMin= 7.88D-07
 ErrMax= 7.88D-07  0.00D+00 EMaxC= 1.00D-01 BMatC= 3.73D-11 BMatP= 8.42D-09
 IDIUse=1 WtCom= 1.00D+00 WtEn= 0.00D+00
 Coeff-Com:  0.217D+00 0.196D+00 0.587D+00
 Coeff:      0.217D+00 0.196D+00 0.587D+00
 Gap=     0.328 Goal=   None    Shift=    0.000
 RMSDP=1.63D-07 MaxDP=1.79D-06 DE=-1.07D-08 OVMax= 1.81D-06

 Cycle   9  Pass 1  IDiag  1:
 E= -115.713463310472     Delta-E=       -0.000000000024 Rises=F Damp=F
 DIIS: error= 3.25D-07 at cycle   4 NSaved=   4.
 NSaved= 4 IEnMin= 4 EnMin= -115.713463310472     IErMin= 4 ErrMin= 3.25D-07
 ErrMax= 3.25D-07  0.00D+00 EMaxC= 1.00D-01 BMatC= 7.27D-12 BMatP= 3.73D-11
 IDIUse=1 WtCom= 1.00D+00 WtEn= 0.00D+00
 Coeff-Com:  0.182D-01 0.204D-01 0.306D+00 0.655D+00
 Coeff:      0.182D-01 0.204D-01 0.306D+00 0.655D+00
 Gap=     0.328 Goal=   None    Shift=    0.000
 RMSDP=6.71D-08 MaxDP=6.27D-07 DE=-2.35D-11 OVMax= 8.60D-07

 Cycle  10  Pass 1  IDiag  1:
 E= -115.713463310477     Delta-E=       -0.000000000006 Rises=F Damp=F
 DIIS: error= 5.18D-08 at cycle   5 NSaved=   5.
 NSaved= 5 IEnMin= 5 EnMin= -115.713463310477     IErMin= 5 ErrMin= 5.18D-08
 ErrMax= 5.18D-08  0.00D+00 EMaxC= 1.00D-01 BMatC= 1.39D-13 BMatP= 7.27D-12
 IDIUse=1 WtCom= 1.00D+00 WtEn= 0.00D+00
 Coeff-Com: -0.133D-01-0.109D-01 0.249D-01 0.162D+00 0.838D+00
 Coeff:     -0.133D-01-0.109D-01 0.249D-01 0.162D+00 0.838D+00
 Gap=     0.328 Goal=   None    Shift=    0.000
 RMSDP=1.79D-08 MaxDP=1.65D-07 DE=-5.57D-12 OVMax= 2.60D-07

 Cycle  11  Pass 1  IDiag  1:
 E= -115.713463310478     Delta-E=       -0.000000000000 Rises=F Damp=F
 DIIS: error= 5.31D-09 at cycle   6 NSaved=   6.
 NSaved= 6 IEnMin= 6 EnMin= -115.713463310478     IErMin= 6 ErrMin= 5.31D-09
 ErrMax= 5.31D-09  0.00D+00 EMaxC= 1.00D-01 BMatC= 8.36D-16 BMatP= 1.39D-13
 IDIUse=1 WtCom= 1.00D+00 WtEn= 0.00D+00
 Coeff-Com: -0.963D-03-0.944D-03-0.503D-02-0.564D-02 0.471D-01 0.965D+00
 Coeff:     -0.963D-03-0.944D-03-0.503D-02-0.564D-02 0.471D-01 0.965D+00
 Gap=     0.328 Goal=   None    Shift=    0.000
 RMSDP=1.54D-09 MaxDP=1.66D-08 DE=-2.84D-13 OVMax= 2.46D-08

 SCF Done:  E(RB3LYP) =  -115.713463310     A.U. after   11 cycles
            NFock= 11  Conv=0.15D-08     -V/T= 2.0088
 KE= 1.147035886186D+02 PE=-3.515782243874D+02 EE= 8.093126301587D+01
 Leave Link  502 at Wed Jan 10 16:36:13 2024, MaxMem=  2684354560 cpu:               6.8 elap:               0.9
 (Enter /opt/g16/l108.exe)
 Scan completed.
 
 Summary of the potential surface scan:
   N      D3          SCF    
 ----  ---------  -----------
    1   180.0000   -115.71751
    2   190.0000   -115.71736
    3   200.0000   -115.71693
    4   210.0000   -115.71630
    5   220.0000   -115.71561
    6   230.0000   -115.71499
    7   240.0000   -115.71454
    8   250.0000   -115.71433
    9   260.0000   -115.71435
   10   270.0000   -115.71454
   11   280.0000   -115.71480
   12   290.0000   -115.71501
   13   300.0000   -115.71508
   14   310.0000   -115.71496
   15   320.0000   -115.71468
   16   330.0000   -115.71428
   17   340.0000   -115.71388
   18   350.0000   -115.71357
   19   360.0000   -115.71346
 ----  ---------  -----------
  
 Leave Link  108 at Wed Jan 10 16:36:13 2024, MaxMem=  2684354560 cpu:               0.1 elap:               0.0
 (Enter /opt/g16/l9999.exe)
 Unable to Open any file for archive entry.
 1\1\GINC-DESKTOP-1D9QDE1\Scan\RB3LYP\6-31G(d)\C1H4O1\JH-LI\10-Jan-2024
 \1\\#p b3lyp em=gd3bj 6-31g(d) scan nosymm\\Title Card Required\\0,1\C
 \H,1,B1\H,1,B2,2,A1\H,1,B3,2,A2,3,D1,0\O,1,B4,2,A3,3,D2,0\H,5,B5,1,A4,
 2,D3,0\\B1=1.0933792\B2=1.10125884\B3=1.10125884\B4=1.418639\B5=0.9687
 226\A1=108.05956655\A2=108.05956655\A3=106.69693538\A4=107.66742719\D1
 =117.09085412\D2=-121.45457294\D3=180.,s,18,10.\\Version=ES64L-G16RevC
 .01\HF=-115.7175094,-115.7173558,-115.7169255,-115.7163037,-115.715613
 2,-115.714988,-115.7145396,-115.7143293,-115.7143528,-115.7145442,-115
 .7147993,-115.7150062,-115.7150754,-115.7149618,-115.7146754,-115.7142
 796,-115.7138756,-115.7135746,-115.7134633\RMSD=5.314e-09,8.133e-10,9.
 297e-10,1.076e-09,1.370e-09,1.816e-09,1.590e-09,1.310e-09,1.097e-09,9.
 395e-10,9.159e-10,7.240e-10,8.526e-10,1.172e-09,1.427e-09,1.401e-09,1.
 218e-09,1.319e-09,1.543e-09\PG=CS [SG(C1H2O1),X(H2)]\\@
 The archive entry for this job was punched.


 THOSE WITH THE GOLD MAKE THE RULES.

             -- PETER'S GOLDEN RULE
 Job cpu time:       0 days  0 hours  3 minutes 22.2 seconds.
 Elapsed time:       0 days  0 hours  0 minutes 26.9 seconds.
 File lengths (MBytes):  RWF=      6 Int=      0 D2E=      0 Chk=      1 Scr=      1
 Normal termination of Gaussian 16 at Wed Jan 10 16:36:13 2024.
